79
scan step HEME+H2
 C    1.010725   -3.823096   -0.434652
 C   -0.164782   -2.977138   -0.320302
 N    0.177354   -1.645900   -0.403108
 C    1.543791   -1.629118   -0.585824
 C    2.082827   -2.982957   -0.611810
 C   -1.459288   -3.457643   -0.161287
 C   -2.606537   -2.679302   -0.056933
 N   -2.632308   -1.304157   -0.109568
 C   -3.959227   -0.959686    0.031157
 C   -4.793155   -2.144746    0.179296
 C   -3.943413   -3.219914    0.126943
 C   -4.441338    0.342412    0.043598
 C   -3.671626    1.500702   -0.031980
 N   -2.297721    1.523380   -0.161306
 C   -1.951595    2.854586   -0.175243
 C   -3.131029    3.699897   -0.036828
 C   -4.211400    2.841964    0.042395
Fe   -1.078087   -0.064219   -0.446259
 N    0.508405    1.175109   -0.455245
 C    1.832783    0.827381   -0.580887
 C    2.683367    2.008016   -0.567633
 C    1.844269    3.087852   -0.451790
 C    0.494925    2.551324   -0.392491
 C    2.309851   -0.474982   -0.692960
 C   -0.648911    3.331497   -0.278965
 C    2.193986    4.543594   -0.377666
 C    4.186720    1.991207   -0.572808
 C    4.759289    1.792200    0.853840
 C    6.263444    1.701874    0.905819
 O     6.914940    0.809953    1.426719
 C   -5.665424    3.184733    0.146856
 C   -3.095208    5.159365   -0.024189
 C   -3.988670    5.993526    0.537322
 C   -4.269182   -4.678538    0.241372
 C   -6.281252   -2.142646    0.394574
 C   -6.691713   -1.954218    1.866406
 C    3.526146   -3.373365   -0.804702
 C    4.438300   -3.218533    0.434988
 C    5.237355   -1.927284    0.459294
 O     5.479176   -1.250058   -0.526005
 C    0.986991   -5.320366   -0.364219
 O     5.668579   -1.616822    1.686068
 O     6.869623    2.750583    0.321304
 H    3.378642   -0.602831   -0.847895
 H   -1.585685   -4.539081   -0.108666
 H   -5.517561    0.470789    0.153441
 H   -0.507864    4.411222   -0.247141
 H    0.309552   -5.753536   -1.119431
 H    1.984469   -5.750891   -0.530964
 H    0.637202   -5.674971    0.620582
 H    3.552537   -4.425023   -1.124637
 H    3.977781   -2.791213   -1.623418
 H    3.881444   -3.311601    1.379250
 H    5.192127   -4.026500    0.447177
 H    6.185102   -0.768039    1.624248
 H   -5.353906   -4.844058    0.308537
 H   -3.899688   -5.249289   -0.627340
 H   -3.811759   -5.129503    1.138871
 H   -6.746308   -1.350615   -0.216749
 H   -6.702869   -3.090660    0.021833
 H   -7.789038   -1.958001    1.973202
 H   -6.284337   -2.761649    2.496109
 H   -6.312858   -1.000536    2.267894
 H   -5.995928    3.277229    1.197044
 H   -5.876028    4.147285   -0.343598
 H   -6.299673    2.420441   -0.326861
 H   -2.237347    5.613695   -0.532235
 H   -3.859442    7.075536    0.463308
 H   -4.852512    5.637025    1.100678
 H    3.273715    4.705477   -0.508246
 H    1.676939    5.126450   -1.158556
 H    1.907328    4.984743    0.592508
 H    4.565834    1.181761   -1.214204
 H    4.577594    2.934103   -0.982721
 H    4.463077    2.647555    1.485647
 H    4.353527    0.883875    1.316649
 H    7.829149    2.591268    0.399265
 H   -0.927787   -0.267042   -1.883237
 H   -1.429926    0.376420   -1.791874
79
scan step HEME+H2
  C      1.010781   -3.823131   -0.434166
  C     -0.164728   -2.977186   -0.319736
  N      0.177392   -1.645943   -0.402537
  C      1.543818   -1.629146   -0.585329
  C      2.082865   -2.982979   -0.611368
  C     -1.459221   -3.457706   -0.160658
  C     -2.606471   -2.679377   -0.056226
  N     -2.632258   -1.304231   -0.108836
  C     -3.959172   -0.959776    0.031969
  C     -4.793081   -2.144845    0.180133
  C     -3.943332   -3.220005    0.127714
  C     -4.441294    0.342318    0.044460
  C     -3.671598    1.500616   -0.031141
  N     -2.297700    1.523310   -0.160542
  C     -1.951587    2.854519   -0.174475
  C     -3.131021    3.699816   -0.035979
  C     -4.211380    2.841872    0.043288
 Fe     -1.078067   -0.064273   -0.445590
  N      0.508413    1.175070   -0.454643
  C      1.832787    0.827356   -0.580364
  C      2.683361    2.007999   -0.567136
  C      1.844259    3.087825   -0.451228
  C      0.494924    2.551283   -0.391863
  C      2.309861   -0.475000   -0.692487
  C     -0.648913    3.331444   -0.278260
  C      2.193967    4.543568   -0.377098
  C      4.186714    1.991204   -0.572395
  C      4.759364    1.792176    0.854218
  C      6.263522    1.701863    0.906112
  O       6.915055    0.809939    1.426961
  C     -5.665401    3.184626    0.147835
  C     -3.095212    5.159285   -0.023317
  C     -3.988651    5.993428    0.538258
  C     -4.269081   -4.678634    0.242135
  C     -6.281166   -2.142763    0.395493
  C     -6.691548   -1.954365    1.867351
  C      3.526177   -3.373371   -0.804347
  C      4.438398   -3.218552    0.435295
  C      5.237442   -1.927296    0.459580
  O       5.479202   -1.250051   -0.525721
  C      0.987064   -5.320403   -0.363759
  O       5.668731   -1.616852    1.686336
  O       6.869659    2.750588    0.321583
  H      3.378645   -0.602837   -0.847483
  H     -1.585605   -4.539146   -0.108049
  H     -5.517513    0.470684    0.154364
  H     -0.507874    4.411169   -0.246425
  H      0.309588   -5.753565   -1.118941
  H      1.984537   -5.750916   -0.530566
  H      0.637333   -5.675028    0.621056
  H      3.552560   -4.425023   -1.124302
  H      3.977762   -2.791199   -1.623078
  H      3.881595   -3.311642    1.379586
  H      5.192233   -4.026512    0.447428
  H      6.185243   -0.768063    1.624502
  H     -5.353800   -4.844165    0.309357
  H     -3.899630   -5.249366   -0.626608
  H     -3.811605   -5.129610    1.139601
  H     -6.746264   -1.350726   -0.215790
  H     -6.702795   -3.090774    0.022758
  H     -7.788867   -1.958160    1.974208
  H     -6.284129   -2.761804    2.497018
  H     -6.312680   -1.000687    2.268835
  H     -5.995848    3.277100    1.198043
  H     -5.876041    4.147185   -0.342590
  H     -6.299669    2.420336   -0.325860
  H     -2.237384    5.613632   -0.531402
  H     -3.859438    7.075440    0.464257
  H     -4.852459    5.636908    1.101656
  H      3.273687    4.705464   -0.507734
  H      1.676872    5.126434   -1.157948
  H      1.907359    4.984698    0.593100
  H      4.565800    1.181773   -1.213826
  H      4.577557    2.934110   -0.982313
  H      4.463179    2.647518    1.486057
  H      4.353636    0.883839    1.317034
  H      7.829192    2.591281    0.399487
  H     -0.935048   -0.258574   -1.981958
  H     -1.437187    0.384882   -1.890556
79
scan step HEME+H2
  C       1.010836   -3.823165   -0.433686
  C      -0.164674   -2.977234   -0.319174
  N       0.177429   -1.645986   -0.401969
  C       1.543845   -1.629172   -0.584837
  C       2.082902   -2.983000   -0.610932
  C      -1.459153   -3.457768   -0.160033
  C      -2.606405   -2.679452   -0.055522
  N      -2.632208   -1.304306   -0.108104
  C      -3.959117   -0.959865    0.032782
  C      -4.793007   -2.144945    0.180969
  C      -3.943251   -3.220096    0.128482
  C      -4.441251    0.342224    0.045324
  C      -3.671569    1.500531   -0.030297
  N      -2.297679    1.523239   -0.159775
  C      -1.951579    2.854452   -0.173702
  C      -3.131014    3.699736   -0.035124
  C      -4.211360    2.841780    0.044188
 Fe      -1.078047   -0.064327   -0.444922
  N       0.508421    1.175031   -0.454039
  C       1.832791    0.827332   -0.579841
  C       2.683355    2.007983   -0.566638
  C       1.844250    3.087799   -0.450663
  C       0.494923    2.551243   -0.391232
  C       2.309871   -0.475017   -0.692015
  C      -0.648916    3.331391   -0.277550
  C       2.193948    4.543544   -0.376524
  C       4.186708    1.991201   -0.571981
  C       4.759440    1.792152    0.854596
  C       6.263601    1.701852    0.906404
  O        6.915172    0.809924    1.427199
  C      -5.665378    3.184518    0.148822
  C      -3.095218    5.159205   -0.022436
  C      -3.988633    5.993328    0.539205
  C      -4.268980   -4.678731    0.242894
  C      -6.281080   -2.142882    0.396413
  C      -6.691381   -1.954515    1.868297
  C       3.526208   -3.373375   -0.803999
  C       4.438496   -3.218571    0.435595
  C       5.237530   -1.927308    0.459860
  O        5.479229   -1.250042   -0.525441
  C       0.987138   -5.320439   -0.363306
  O        5.668885   -1.616883    1.686598
  O        6.869696    2.750594    0.321861
  H       3.378647   -0.602842   -0.847074
  H      -1.585524   -4.539210   -0.107438
  H      -5.517464    0.470577    0.155291
  H      -0.507885    4.411117   -0.245703
  H       0.309623   -5.753593   -1.118458
  H       1.984605   -5.750939   -0.530177
  H       0.637465   -5.675086    0.621522
  H       3.552583   -4.425020   -1.123976
  H       3.977741   -2.791183   -1.622744
  H       3.881747   -3.311684    1.379915
  H       5.192340   -4.026525    0.447671
  H       6.185385   -0.768088    1.624751
  H      -5.353693   -4.844273    0.310174
  H      -3.899572   -5.249442   -0.625880
  H      -3.811449   -5.129720    1.140326
  H      -6.746219   -1.350837   -0.214829
  H      -6.702721   -3.090889    0.023684
  H      -7.788694   -1.958323    1.975216
  H      -6.283919   -2.761962    2.497926
  H      -6.312499   -1.000841    2.269779
  H      -5.995767    3.276969    1.199051
  H      -5.876055    4.147085   -0.341573
  H      -6.299665    2.420232   -0.324852
  H      -2.237422    5.613569   -0.530560
  H      -3.859434    7.075343    0.465217
  H      -4.852406    5.636790    1.102645
  H       3.273659    4.705452   -0.507217
  H       1.676804    5.126420   -1.157334
  H       1.907390    4.984652    0.593699
  H       4.565766    1.181786   -1.213449
  H       4.577518    2.934120   -0.981903
  H       4.463282    2.647479    1.486468
  H       4.353746    0.883803    1.317417
  H       7.829234    2.591294    0.399709
  H      -0.942321   -0.250100   -2.080678
  H      -1.444461    0.393349   -1.989236
79
scan step HEME+H2
  C      1.010892   -3.823199   -0.433211
  C     -0.164620   -2.977281   -0.318616
  N      0.177466   -1.646028   -0.401403
  C      1.543871   -1.629198   -0.584348
  C      2.082940   -2.983020   -0.610501
  C     -1.459086   -3.457831   -0.159411
  C     -2.606338   -2.679528   -0.054820
  N     -2.632157   -1.304381   -0.107372
  C     -3.959062   -0.959955    0.033596
  C     -4.792932   -2.145046    0.181806
  C     -3.943169   -3.220188    0.129249
  C     -4.441207    0.342129    0.046192
  C     -3.671541    1.500445   -0.029449
  N     -2.297658    1.523169   -0.159004
  C     -1.951572    2.854385   -0.172923
  C     -3.131006    3.699655   -0.034261
  C     -4.211340    2.841687    0.045093
 Fe      -1.078027   -0.064380   -0.444252
  N      0.508428    1.174993   -0.453434
  C      1.832795    0.827309   -0.579318
  C      2.683348    2.007968   -0.566139
  C      1.844239    3.087773   -0.450094
  C      0.494921    2.551204   -0.390598
  C      2.309881   -0.475034   -0.691546
  C     -0.648919    3.331339   -0.276836
  C      2.193928    4.543520   -0.375945
  C      4.186701    1.991201   -0.571567
  C      4.759515    1.792127    0.854973
  C      6.263681    1.701841    0.906695
  O       6.915289    0.809908    1.427435
  C     -5.665356    3.184410    0.149817
  C     -3.095223    5.159124   -0.021545
  C     -3.988615    5.993227    0.540163
  C     -4.268878   -4.678828    0.243649
  C     -6.280993   -2.143001    0.397334
  C     -6.691213   -1.954668    1.869245
  C      3.526238   -3.373377   -0.803658
  C      4.438596   -3.218590    0.435888
  C      5.237619   -1.927320    0.460135
  O       5.479255   -1.250031   -0.525167
  C      0.987212   -5.320474   -0.362861
  O       5.669040   -1.616916    1.686854
  O       6.869732    2.750600    0.322138
  H      3.378649   -0.602845   -0.846667
  H     -1.585443   -4.539275   -0.106831
  H     -5.517416    0.470470    0.156222
  H     -0.507896    4.411065   -0.244974
  H      0.309658   -5.753619   -1.117984
  H      1.984674   -5.750962   -0.529798
  H      0.637598   -5.675145    0.621979
  H      3.552605   -4.425016   -1.123657
  H      3.977720   -2.791165   -1.622416
  H      3.881900   -3.311728    1.380238
  H      5.192448   -4.026537    0.447905
  H      6.185528   -0.768115    1.624995
  H     -5.353585   -4.844382    0.310987
  H     -3.899514   -5.249519   -0.625157
  H     -3.811292   -5.129831    1.141046
  H     -6.746174   -1.350948   -0.213865
  H     -6.702646   -3.091005    0.024609
  H     -7.788519   -1.958489    1.976225
  H     -6.283708   -2.762125    2.498834
  H     -6.312317   -1.000999    2.270725
  H     -5.995686    3.276836    1.200067
  H     -5.876069    4.146984   -0.340546
  H     -6.299662    2.420127   -0.323836
  H     -2.237461    5.613507   -0.529709
  H     -3.859430    7.075245    0.466190
  H     -4.852352    5.636669    1.103644
  H      3.273630    4.705441   -0.506697
  H      1.676734    5.126407   -1.156715
  H      1.907421    4.984606    0.594302
  H      4.565730    1.181802   -1.213073
  H      4.577479    2.934131   -0.981492
  H      4.463385    2.647438    1.486879
  H      4.353856    0.883765    1.317798
  H      7.829277    2.591308    0.399929
  H     -0.949607   -0.241619   -2.179397
  H     -1.451748    0.401823   -2.087913
79
scan step HEME+H2
  C       1.010948   -3.823232   -0.432743
  C      -0.164565   -2.977328   -0.318062
  N       0.177503   -1.646070   -0.400839
  C       1.543898   -1.629222   -0.583862
  C       2.082978   -2.983039   -0.610076
  C      -1.459017   -3.457894   -0.158794
  C      -2.606272   -2.679604   -0.054120
  N      -2.632107   -1.304456   -0.106640
  C      -3.959006   -0.960046    0.034411
  C      -4.792857   -2.145148    0.182643
  C      -3.943087   -3.220281    0.130014
  C      -4.441163    0.342033    0.047063
  C      -3.671513    1.500358   -0.028597
  N      -2.297637    1.523098   -0.158230
  C      -1.951565    2.854318   -0.172140
  C      -3.130999    3.699573   -0.033392
  C      -4.211320    2.841594    0.046006
 Fe      -1.078008   -0.064433   -0.443582
  N       0.508436    1.174955   -0.452828
  C       1.832798    0.827287   -0.578795
  C       2.683341    2.007953   -0.565639
  C       1.844228    3.087748   -0.449522
  C       0.494918    2.551165   -0.389961
  C       2.309890   -0.475049   -0.691079
  C      -0.648922    3.331286   -0.276116
  C       2.193907    4.543497   -0.375362
  C       4.186694    1.991201   -0.571153
  C       4.759591    1.792102    0.855350
  C       6.263760    1.701829    0.906983
  O        6.915407    0.809891    1.427667
  C      -5.665333    3.184300    0.150820
  C      -3.095229    5.159042   -0.020646
  C      -3.988597    5.993125    0.541132
  C      -4.268775   -4.678926    0.244401
  C      -6.280905   -2.143122    0.398256
  C      -6.691043   -1.954825    1.870195
  C       3.526269   -3.373378   -0.803323
  C       4.438696   -3.218609    0.436174
  C       5.237708   -1.927332    0.460403
  O        5.479281   -1.250020   -0.524898
  C       0.987286   -5.320509   -0.362423
  O        5.669196   -1.616951    1.687104
  O        6.869769    2.750607    0.322415
  H       3.378651   -0.602846   -0.846264
  H      -1.585362   -4.539340   -0.106230
  H      -5.517367    0.470361    0.157158
  H      -0.507908    4.411014   -0.244239
  H       0.309694   -5.753644   -1.117517
  H       1.984743   -5.750983   -0.529427
  H       0.637732   -5.675205    0.622429
  H       3.552627   -4.425009   -1.123347
  H       3.977698   -2.791143   -1.622095
  H       3.882055   -3.311773    1.380553
  H       5.192556   -4.026549    0.448130
  H       6.185673   -0.768144    1.625235
  H      -5.353477   -4.844492    0.311797
  H      -3.899455   -5.249594   -0.624439
  H      -3.811133   -5.129945    1.141761
  H      -6.746129   -1.351060   -0.212900
  H      -6.702571   -3.091122    0.025534
  H      -7.788343   -1.958658    1.977238
  H      -6.283494   -2.762291    2.499743
  H      -6.312133   -1.001161    2.271673
  H      -5.995605    3.276700    1.201090
  H      -5.876084    4.146883   -0.339510
  H      -6.299660    2.420022   -0.322814
  H      -2.237500    5.613445   -0.528849
  H      -3.859427    7.075146    0.467175
  H      -4.852299    5.636547    1.104654
  H       3.273601    4.705431   -0.506171
  H       1.676663    5.126396   -1.156089
  H       1.907451    4.984559    0.594912
  H       4.565694    1.181820   -1.212699
  H       4.577440    2.934144   -0.981080
  H       4.463489    2.647397    1.487292
  H       4.353967    0.883725    1.318179
  H       7.829319    2.591322    0.400147
  H      -0.956905   -0.233132   -2.278115
  H      -1.459047    0.410304   -2.186588
79
scan step HEME+H2
   C        1.011005   -3.823264   -0.432280
   C       -0.164510   -2.977374   -0.317512
   N        0.177540   -1.646111   -0.400278
   C        1.543924   -1.629246   -0.583379
   C        2.083016   -2.983057   -0.609655
   C       -1.458949   -3.457956   -0.158180
   C       -2.606204   -2.679680   -0.053421
   N       -2.632056   -1.304531   -0.105909
   C       -3.958951   -0.960137    0.035227
   C       -4.792782   -2.145251    0.183480
   C       -3.943004   -3.220374    0.130777
   C       -4.441120    0.341937    0.047937
   C       -3.671484    1.500271   -0.027740
   N       -2.297617    1.523027   -0.157452
   C       -1.951558    2.854251   -0.171351
   C       -3.130993    3.699492   -0.032516
   C       -4.211301    2.841500    0.046925
  Fe       -1.077988   -0.064485   -0.442912
   N        0.508442    1.174919   -0.452221
   C        1.832801    0.827266   -0.578272
   C        2.683333    2.007940   -0.565138
   C        1.844217    3.087724   -0.448948
   C        0.494915    2.551126   -0.389321
   C        2.309899   -0.475062   -0.690613
   C       -0.648926    3.331234   -0.275392
   C        2.193886    4.543475   -0.374774
   C        4.186686    1.991202   -0.570739
   C        4.759668    1.792076    0.855726
   C        6.263841    1.701816    0.907271
   O         6.915526    0.809872    1.427896
   C       -5.665311    3.184190    0.151831
   C       -3.095236    5.158961   -0.019738
   C       -3.988579    5.993022    0.542111
   C       -4.268671   -4.679025    0.245148
   C       -6.280817   -2.143244    0.399179
   C       -6.690871   -1.954985    1.871146
   C        3.526299   -3.373377   -0.802995
   C        4.438796   -3.218629    0.436452
   C        5.237797   -1.927344    0.460665
   O         5.479307   -1.250007   -0.524633
   C        0.987361   -5.320543   -0.361994
   O         5.669353   -1.616988    1.687349
   O         6.869805    2.750613    0.322692
   H        3.378652   -0.602846   -0.845863
   H       -1.585280   -4.539405   -0.105634
   H       -5.517318    0.470252    0.158097
   H       -0.507920    4.410962   -0.243498
   H        0.309729   -5.753667   -1.117059
   H        1.984812   -5.751004   -0.529065
   H        0.637867   -5.675265    0.622870
   H        3.552650   -4.425001   -1.123045
   H        3.977676   -2.791119   -1.621780
   H        3.882211   -3.311819    1.380862
   H        5.192665   -4.026562    0.448346
   H        6.185818   -0.768174    1.625469
   H       -5.353368   -4.844603    0.312603
   H       -3.899396   -5.249670   -0.623726
   H       -3.810973   -5.130060    1.142472
   H       -6.746084   -1.351173   -0.211932
   H       -6.702495   -3.091239    0.026460
   H       -7.788166   -1.958832    1.978252
   H       -6.283279   -2.762462    2.500652
   H       -6.311948   -1.001327    2.272625
   H       -5.995522    3.276562    1.202123
   H       -5.876099    4.146782   -0.338465
   H       -6.299657    2.419916   -0.321784
   H       -2.237541    5.613383   -0.527980
   H       -3.859424    7.075045    0.468171
   H       -4.852245    5.636422    1.105675
   H        3.273570    4.705422   -0.505642
   H        1.676591    5.126387   -1.155457
   H        1.907482    4.984511    0.595527
   H        4.565657    1.181840   -1.212325
   H        4.577399    2.934159   -0.980667
   H        4.463594    2.647353    1.487705
   H        4.354079    0.883685    1.318557
   H        7.829361    2.591336    0.400365
   H       -0.964216   -0.224637   -2.376830
   H       -1.466360    0.418791   -2.285260
79
scan step HEME+H2
  C      1.011061   -3.823296   -0.431824
  C     -0.164456   -2.977420   -0.316965
  N      0.177577   -1.646152   -0.399719
  C      1.543950   -1.629269   -0.582900
  C      2.083054   -2.983074   -0.609241
  C     -1.458880   -3.458019   -0.157570
  C     -2.606137   -2.679756   -0.052725
  N     -2.632005   -1.304606   -0.105178
  C     -3.958895   -0.960229    0.036044
  C     -4.792706   -2.145355    0.184317
  C     -3.942920   -3.220468    0.131537
  C     -4.441076    0.341840    0.048815
  C     -3.671456    1.500184   -0.026879
  N     -2.297596    1.522957   -0.156671
  C     -1.951551    2.854184   -0.170557
  C     -3.130986    3.699410   -0.031632
  C     -4.211281    2.841405    0.047850
 Fe     -1.077969   -0.064537   -0.442241
  N      0.508449    1.174883   -0.451612
  C      1.832804    0.827246   -0.577749
  C      2.683325    2.007928   -0.564635
  C      1.844205    3.087701   -0.448370
  C      0.494912    2.551089   -0.388678
  C      2.309908   -0.475075   -0.690150
  C     -0.648930    3.331183   -0.274663
  C      2.193864    4.543453   -0.374180
  C      4.186677    1.991205   -0.570325
  C      4.759745    1.792049    0.856102
  C      6.263921    1.701803    0.907556
  O       6.915646    0.809853    1.428121
  C     -5.665289    3.184078    0.152850
  C     -3.095243    5.158879   -0.018821
  C     -3.988562    5.992917    0.543101
  C     -4.268567   -4.679125    0.245892
  C     -6.280728   -2.143368    0.400103
  C     -6.690699   -1.955149    1.872098
  C      3.526330   -3.373375   -0.802675
  C      4.438898   -3.218648    0.436724
  C      5.237887   -1.927357    0.460921
  O       5.479333   -1.249992   -0.524375
  C      0.987436   -5.320577   -0.361573
  O       5.669512   -1.617026    1.687588
  O       6.869841    2.750620    0.322968
  H      3.378653   -0.602844   -0.845466
  H     -1.585197   -4.539470   -0.105043
  H     -5.517269    0.470142    0.159040
  H     -0.507933    4.410911   -0.242750
  H      0.309764   -5.753689   -1.116609
  H      1.984882   -5.751024   -0.528713
  H      0.638003   -5.675326    0.623303
  H      3.552672   -4.424991   -1.122752
  H      3.977653   -2.791093   -1.621471
  H      3.882369   -3.311868    1.381163
  H      5.192775   -4.026574    0.448553
  H      6.185965   -0.768206    1.625699
  H     -5.353258   -4.844715    0.313407
  H     -3.899337   -5.249745   -0.623018
  H     -3.810812   -5.130178    1.143178
  H     -6.746039   -1.351286   -0.210961
  H     -6.702419   -3.091358    0.027385
  H     -7.787987   -1.959009    1.979268
  H     -6.283061   -2.762637    2.501560
  H     -6.311761   -1.001497    2.273578
  H     -5.995440    3.276422    1.203163
  H     -5.876115    4.146681   -0.337410
  H     -6.299655    2.419810   -0.320747
  H     -2.237582    5.613322   -0.527102
  H     -3.859421    7.074944    0.469180
  H     -4.852191    5.636295    1.106706
  H      3.273539    4.705415   -0.505107
  H      1.676518    5.126380   -1.154819
  H      1.907512    4.984463    0.596148
  H      4.565619    1.181862   -1.211953
  H      4.577357    2.934175   -0.980253
  H      4.463699    2.647308    1.488119
  H      4.354192    0.883643    1.318934
  H      7.829404    2.591351    0.400581
  H     -0.971541   -0.216135   -2.475545
  H     -1.473685    0.427287   -2.383929
79
scan step HEME+H2
  C       1.011118   -3.823327   -0.431373
  C      -0.164400   -2.977466   -0.316423
  N       0.177614   -1.646192   -0.399163
  C       1.543976   -1.629291   -0.582423
  C       2.083092   -2.983089   -0.608832
  C      -1.458811   -3.458081   -0.156964
  C      -2.606069   -2.679833   -0.052032
  N      -2.631954   -1.304682   -0.104446
  C      -3.958839   -0.960321    0.036862
  C      -4.792629   -2.145459    0.185153
  C      -3.942836   -3.220563    0.132296
  C      -4.441032    0.341743    0.049695
  C      -3.671428    1.500096   -0.026014
  N      -2.297576    1.522886   -0.155886
  C      -1.951545    2.854117   -0.169759
  C      -3.130980    3.699327   -0.030742
  C      -4.211262    2.841310    0.048782
 Fe      -1.077950   -0.064588   -0.441569
  N       0.508455    1.174847   -0.451002
  C       1.832806    0.827227   -0.577226
  C       2.683316    2.007917   -0.564132
  C       1.844192    3.087679   -0.447789
  C       0.494908    2.551051   -0.388031
  C       2.309916   -0.475087   -0.689689
  C      -0.648935    3.331131   -0.273928
  C       2.193842    4.543433   -0.373582
  C       4.186668    1.991209   -0.569911
  C       4.759822    1.792022    0.856477
  C       6.264003    1.701789    0.907840
  O        6.915767    0.809832    1.428344
  C      -5.665267    3.183966    0.153877
  C      -3.095251    5.158796   -0.017895
  C      -3.988544    5.992812    0.544101
  C      -4.268462   -4.679226    0.246633
  C      -6.280639   -2.143492    0.401027
  C      -6.690524   -1.955316    1.873052
  C       3.526360   -3.373372   -0.802361
  C       4.439000   -3.218668    0.436988
  C       5.237978   -1.927369    0.461172
  O        5.479359   -1.249977   -0.524121
  C       0.987512   -5.320610   -0.361160
  O        5.669672   -1.617066    1.687821
  O        6.869878    2.750628    0.323243
  H       3.378654   -0.602841   -0.845071
  H      -1.585114   -4.539536   -0.104458
  H      -5.517220    0.470031    0.159988
  H      -0.507947    4.410860   -0.241996
  H       0.309800   -5.753709   -1.116167
  H       1.984952   -5.751043   -0.528370
  H       0.638141   -5.675388    0.623727
  H       3.552693   -4.424979   -1.122467
  H       3.977629   -2.791064   -1.621168
  H       3.882527   -3.311917    1.381458
  H       5.192886   -4.026586    0.448752
  H       6.186113   -0.768239    1.625923
  H      -5.353147   -4.844829    0.314207
  H      -3.899277   -5.249819   -0.622314
  H      -3.810649   -5.130297    1.143880
  H      -6.745993   -1.351399   -0.209988
  H      -6.702342   -3.091477    0.028310
  H      -7.787806   -1.959189    1.980287
  H      -6.282842   -2.762817    2.502469
  H      -6.311573   -1.001671    2.274534
  H      -5.995357    3.276279    1.204212
  H      -5.876132    4.146579   -0.336346
  H      -6.299654    2.419704   -0.319703
  H      -2.237624    5.613262   -0.526214
  H      -3.859419    7.074841    0.470201
  H      -4.852137    5.636166    1.107749
  H       3.273507    4.705408   -0.504569
  H       1.676444    5.126374   -1.154176
  H       1.907543    4.984414    0.596774
  H       4.565580    1.181887   -1.211583
  H       4.577315    2.934194   -0.979837
  H       4.463805    2.647261    1.488534
  H       4.354305    0.883599    1.319310
  H       7.829446    2.591365    0.400796
  H      -0.978878   -0.207624   -2.574258
  H      -1.481024    0.435790   -2.482595
79
scan step HEME+H2
  C        1.011175   -3.823357   -0.430928
  C       -0.164345   -2.977511   -0.315885
  N        0.177651   -1.646231   -0.398609
  C        1.544002   -1.629311   -0.581950
  C        2.083130   -2.983104   -0.608428
  C       -1.458741   -3.458144   -0.156362
  C       -2.606001   -2.679910   -0.051340
  N       -2.631902   -1.304757   -0.103715
  C       -3.958782   -0.960414    0.037682
  C       -4.792552   -2.145564    0.185990
  C       -3.942752   -3.220658    0.133053
  C       -4.440988    0.341645    0.050579
  C       -3.671400    1.500008   -0.025144
  N       -2.297556    1.522815   -0.155097
  C       -1.951539    2.854050   -0.168954
  C       -3.130975    3.699245   -0.029844
  C       -4.211243    2.841215    0.049721
 Fe       -1.077932   -0.064639   -0.440897
  N        0.508461    1.174812   -0.450390
  C        1.832807    0.827209   -0.576703
  C        2.683307    2.007907   -0.563628
  C        1.844179    3.087657   -0.447205
  C        0.494904    2.551015   -0.387381
  C        2.309924   -0.475097   -0.689230
  C       -0.648940    3.331080   -0.273189
  C        2.193818    4.543413   -0.372979
  C        4.186659    1.991214   -0.569497
  C        4.759899    1.791994    0.856852
  C        6.264084    1.701774    0.908123
  O         6.915888    0.809810    1.428563
  C       -5.665245    3.183853    0.154911
  C       -3.095259    5.158714   -0.016959
  C       -3.988527    5.992705    0.545113
  C       -4.268356   -4.679328    0.247369
  C       -6.280549   -2.143618    0.401953
  C       -6.690349   -1.955486    1.874007
  C        3.526391   -3.373367   -0.802054
  C        4.439102   -3.218688    0.437245
  C        5.238069   -1.927381    0.461416
  O         5.479385   -1.249960   -0.523872
  C        0.987588   -5.320642   -0.360754
  O         5.669833   -1.617107    1.688048
  O         6.869914    2.750635    0.323518
  H        3.378654   -0.602837   -0.844680
  H       -1.585030   -4.539601   -0.103878
  H       -5.517171    0.469920    0.160940
  H       -0.507961    4.410809   -0.241236
  H        0.309835   -5.753728   -1.115733
  H        1.985022   -5.751060   -0.528036
  H        0.638279   -5.675451    0.624144
  H        3.552715   -4.424965   -1.122190
  H        3.977605   -2.791032   -1.620872
  H        3.882687   -3.311968    1.381745
  H        5.192997   -4.026599    0.448942
  H        6.186262   -0.768274    1.626143
  H       -5.353035   -4.844943    0.315003
  H       -3.899217   -5.249893   -0.621615
  H       -3.810485   -5.130419    1.144576
  H       -6.745948   -1.351513   -0.209013
  H       -6.702265   -3.091597    0.029235
  H       -7.787624   -1.959374    1.981307
  H       -6.282621   -2.763000    2.503378
  H       -6.311383   -1.001848    2.275493
  H       -5.995273    3.276134    1.205268
  H       -5.876149    4.146478   -0.335272
  H       -6.299653    2.419597   -0.318651
  H       -2.237667    5.613201   -0.525318
  H       -3.859417    7.074738    0.471235