
                                 *****************
                                 * O   R   C   A *
                                 *****************

                                            #,                                       
                                            ###                                      
                                            ####                                     
                                            #####                                    
                                            ######                                   
                                           ########,                                 
                                     ,,################,,,,,                         
                               ,,#################################,,                 
                          ,,##########################################,,             
                       ,#########################################, ''#####,          
                    ,#############################################,,   '####,        
                  ,##################################################,,,,####,       
                ,###########''''           ''''###############################       
              ,#####''   ,,,,##########,,,,          '''####'''          '####       
            ,##' ,,,,###########################,,,                        '##       
           ' ,,###''''                  '''############,,,                           
         ,,##''                                '''############,,,,        ,,,,,,###''
      ,#''                                            '''#######################'''  
     '                                                          ''''####''''         
             ,#######,   #######,   ,#######,      ##                                
            ,#'     '#,  ##    ##  ,#'     '#,    #''#        ######   ,####,        
            ##       ##  ##   ,#'  ##            #'  '#       #        #'  '#        
            ##       ##  #######   ##           ,######,      #####,   #    #        
            '#,     ,#'  ##    ##  '#,     ,#' ,#      #,         ##   #,  ,#        
             '#######'   ##     ##  '#######'  #'      '#     #####' # '####'        



                  #######################################################
                  #                        -***-                        #
                  #          Department of theory and spectroscopy      #
                  #    Directorship and core code : Frank Neese         #
                  #        Max Planck Institute fuer Kohlenforschung    #
                  #                Kaiser Wilhelm Platz 1               #
                  #                 D-45470 Muelheim/Ruhr               #
                  #                      Germany                        #
                  #                                                     #
                  #                  All rights reserved                #
                  #                        -***-                        #
                  #######################################################


                         Program Version 5.0.4 -  RELEASE  -


 With contributions from (in alphabetic order):
   Daniel Aravena         : Magnetic Suceptibility
   Michael Atanasov       : Ab Initio Ligand Field Theory (pilot matlab implementation)
   Alexander A. Auer      : GIAO ZORA, VPT2 properties, NMR spectrum
   Ute Becker             : Parallelization
   Giovanni Bistoni       : ED, misc. LED, open-shell LED, HFLD
   Martin Brehm           : Molecular dynamics
   Dmytro Bykov           : SCF Hessian
   Vijay G. Chilkuri      : MRCI spin determinant printing, contributions to CSF-ICE
   Dipayan Datta          : RHF DLPNO-CCSD density
   Achintya Kumar Dutta   : EOM-CC, STEOM-CC
   Dmitry Ganyushin       : Spin-Orbit,Spin-Spin,Magnetic field MRCI
   Miquel Garcia          : C-PCM and meta-GGA Hessian, CC/C-PCM, Gaussian charge scheme
   Yang Guo               : DLPNO-NEVPT2, F12-NEVPT2, CIM, IAO-localization
   Andreas Hansen         : Spin unrestricted coupled pair/coupled cluster methods
   Benjamin Helmich-Paris : MC-RPA, TRAH-SCF, COSX integrals
   Lee Huntington         : MR-EOM, pCC
   Robert Izsak           : Overlap fitted RIJCOSX, COSX-SCS-MP3, EOM
   Marcus Kettner         : VPT2
   Christian Kollmar      : KDIIS, OOCD, Brueckner-CCSD(T), CCSD density, CASPT2, CASPT2-K
   Simone Kossmann        : Meta GGA functionals, TD-DFT gradient, OOMP2, MP2 Hessian
   Martin Krupicka        : Initial AUTO-CI
   Lucas Lang             : DCDCAS
   Marvin Lechner         : AUTO-CI (C++ implementation), FIC-MRCC
   Dagmar Lenk            : GEPOL surface, SMD
   Dimitrios Liakos       : Extrapolation schemes; Compound Job, initial MDCI parallelization
   Dimitrios Manganas     : Further ROCIS development; embedding schemes
   Dimitrios Pantazis     : SARC Basis sets
   Anastasios Papadopoulos: AUTO-CI, single reference methods and gradients
   Taras Petrenko         : DFT Hessian,TD-DFT gradient, ASA, ECA, R-Raman, ABS, FL, XAS/XES, NRVS
   Peter Pinski           : DLPNO-MP2, DLPNO-MP2 Gradient
   Christoph Reimann      : Effective Core Potentials
   Marius Retegan         : Local ZFS, SOC
   Christoph Riplinger    : Optimizer, TS searches, QM/MM, DLPNO-CCSD(T), (RO)-DLPNO pert. Triples
   Tobias Risthaus        : Range-separated hybrids, TD-DFT gradient, RPA, STAB
   Michael Roemelt        : Original ROCIS implementation
   Masaaki Saitow         : Open-shell DLPNO-CCSD energy and density
   Barbara Sandhoefer     : DKH picture change effects
   Avijit Sen             : IP-ROCIS
   Kantharuban Sivalingam : CASSCF convergence, NEVPT2, FIC-MRCI
   Bernardo de Souza      : ESD, SOC TD-DFT
   Georgi Stoychev        : AutoAux, RI-MP2 NMR, DLPNO-MP2 response
   Willem Van den Heuvel  : Paramagnetic NMR
   Boris Wezisla          : Elementary symmetry handling
   Frank Wennmohs         : Technical directorship


 We gratefully acknowledge several colleagues who have allowed us to
 interface, adapt or use parts of their codes:
   Stefan Grimme, W. Hujo, H. Kruse, P. Pracht,  : VdW corrections, initial TS optimization,
                  C. Bannwarth, S. Ehlert          DFT functionals, gCP, sTDA/sTD-DF
   Ed Valeev, F. Pavosevic, A. Kumar             : LibInt (2-el integral package), F12 methods
   Garnet Chan, S. Sharma, J. Yang, R. Olivares  : DMRG
   Ulf Ekstrom                                   : XCFun DFT Library
   Mihaly Kallay                                 : mrcc  (arbitrary order and MRCC methods)
   Jiri Pittner, Ondrej Demel                    : Mk-CCSD
   Frank Weinhold                                : gennbo (NPA and NBO analysis)
   Christopher J. Cramer and Donald G. Truhlar   : smd solvation model
   Lars Goerigk                                  : TD-DFT with DH, B97 family of functionals
   V. Asgeirsson, H. Jonsson                     : NEB implementation
   FAccTs GmbH                                   : IRC, NEB, NEB-TS, DLPNO-Multilevel, CI-OPT
                                                   MM, QMMM, 2- and 3-layer-ONIOM, Crystal-QMMM,
                                                   LR-CPCM, SF, NACMEs, symmetry and pop. for TD-DFT,
                                                   nearIR, NL-DFT gradient (VV10), updates on ESD,
                                                   ML-optimized integration grids
   S Lehtola, MJT Oliveira, MAL Marques          : LibXC Library
   Liviu Ungur et al                             : ANISO software


 Your calculation uses the libint2 library for the computation of 2-el integrals
 For citations please refer to: http://libint.valeyev.net

 Your ORCA version has been built with support for libXC version: 5.1.0
 For citations please refer to: https://tddft.org/programs/libxc/

 This ORCA versions uses:
   CBLAS   interface :  Fast vector & matrix operations
   LAPACKE interface :  Fast linear algebra routines
   SCALAPACK package :  Parallel linear algebra routines
   Shared memory     :  Shared parallel matrices
   BLAS/LAPACK       :  OpenBLAS 0.3.15  USE64BITINT DYNAMIC_ARCH NO_AFFINITY Zen SINGLE_THREADED
        Core in use  :  Zen
   Copyright (c) 2011-2014, The OpenBLAS Project


Your calculation utilizes the atom-pairwise dispersion correction
based on tight binding partial charges (D4)
Cite in your paper:
E.Caldeweyher, C.Bannwarth, S.Grimme, J.Chem.Phys., (2017), 147, 034112.
E.Caldeweyher, S.Ehlert, A.Hansen, H.Neugebauer, S.Grimme, J.Chem.Phys., (2018), in progress.
   

================================================================================

----- Orbital basis set information -----
Your calculation utilizes the basis: def2-TZVP
   F. Weigend and R. Ahlrichs, Phys. Chem. Chem. Phys. 7, 3297 (2005).

----- AuxJ basis set information -----
Your calculation utilizes the auxiliary basis: def2/J
   F. Weigend, Phys. Chem. Chem. Phys. 8, 1057 (2006).

================================================================================
                                        WARNINGS
                       Please study these warnings very carefully!
================================================================================


INFO   : the flag for use of the SHARK integral package has been found!

================================================================================
                                       INPUT FILE
================================================================================
NAME = input/input_orca_scan_191
|  1> !QMMM revPBE D4 DEF2-TZVP
|  2> %QMMM 
|  3>  QMATOMS {1487:1497} {2459:2533} END 
|  4>  ORCAFFFilename "myo_step1.prms"
|  5> END
|  6> %PAL NPROCS 8 END
|  7> 
|  8> * xyz 0 1
|  9> N          25.7050000000    11.1030000000   -10.9360000000
| 10> H          25.6188695111    11.2232902197    -9.9065769568
| 11> H          25.5256494807    10.1093345655   -11.1851225232
| 12> H          25.0105025405    11.7108506559   -11.4153646785
| 13> C          27.0830000000    11.4840000000   -11.3690000000
| 14> H          27.7802067498    10.9638731862   -10.7291238623
| 15> C          27.3410000000    11.1140000000   -12.8560000000
| 16> H          26.5550489697    11.5782676786   -13.4889501738
| 17> C          28.7110000000    11.6030000000   -13.3190000000
| 18> H          29.4934659141    11.2869279743   -12.5963890619
| 19> H          28.7147602958    12.7121030838   -13.3832674905
| 20> H          28.9508651690    11.1698271549   -14.3135250563
| 21> C          27.2140000000     9.6070000000   -13.0690000000
| 22> H          26.1927882053     9.2671655034   -12.7933916086
| 23> H          27.9499796795     9.0716852336   -12.4317982165
| 24> H          27.3939757848     9.3595561750   -14.1370048553
| 25> C          27.3220000000    12.9780000000   -11.1450000000
| 26> O          26.5680000000    13.8200000000   -11.6440000000
| 27> N          28.3700000000    13.2970000000   -10.3890000000
| 28> H          28.9318754310    12.6036601979    -9.9448231789
| 29> C          28.7650000000    14.6840000000   -10.1610000000
| 30> H          27.8673073334    15.2637081088   -10.0054283416
| 31> C          29.6900000000    14.8030000000    -8.9430000000
| 32> H          30.2421258084    15.7587639934    -9.0493526083
| 33> H          30.4081574858    13.9599855348    -8.9997012659
| 34> C          29.0950000000    14.7870000000    -7.5330000000
| 35> H          28.1586879118    15.3846239394    -7.5254689812
| 36> C          28.7850000000    13.3660000000    -7.0800000000
| 37> H          29.7138766644    12.7565340057    -7.0722318539
| 38> H          28.0586941486    12.8967165641    -7.7775005145
| 39> H          28.3616282893    13.3803939307    -6.0529638224
| 40> C          30.0480000000    15.4680000000    -6.5540000000
| 41> H          30.2195470121    16.5224223534    -6.8591001857
| 42> H          31.0242581852    14.9378037197    -6.5458783670
| 43> H          29.6099616280    15.4609628559    -5.5330558468
| 44> C          29.4610000000    15.2690000000   -11.3840000000
| 45> O          30.1860000000    14.5690000000   -12.0960000000
| 46> N          29.2280000000    16.5570000000   -11.6210000000
| 47> H          28.5553811951    17.0779774094   -11.1014531186
| 48> C          29.9430000000    17.2880000000   -12.6570000000
| 49> H          30.0449764732    16.6403200919   -13.5150700130
| 50> C          29.1800000000    18.5600000000   -13.0370000000
| 51> H          28.1169253743    18.3083068188   -13.2387560703
| 52> H          29.6336643052    19.0063596551   -13.9475681664
| 53> O          29.2270000000    19.5200000000   -11.9910000000
| 54> H          28.5635670467    19.2483507312   -11.3525147681
| 55> C          31.3440000000    17.6400000000   -12.1560000000
| 56> O          31.6110000000    17.5850000000   -10.9520000000
| 57> N          32.2350000000    17.9920000000   -13.0810000000
| 58> H          32.0288662636    17.9499311087   -14.0553847850
| 59> C          33.5760000000    18.4640000000   -12.7290000000
| 60> H          34.0480628840    17.7072867543   -12.1201460178
| 61> C          34.4050000000    18.7250000000   -13.9920000000
| 62> H          33.7979981073    19.3500846207   -14.6799182716
| 63> H          34.6097091518    17.7481931171   -14.4781646901
| 64> C          35.7490000000    19.4350000000   -13.7620000000
| 65> H          35.5700010885    20.3417327143   -13.1462640505
| 66> H          36.1627756904    19.7381807000   -14.7469907238
| 67> C          36.7910000000    18.5780000000   -13.0530000000
| 68> O          36.5940000000    17.3500000000   -12.9230000000
| 69> O          37.8260000000    19.1400000000   -12.6290000000
| 70> C          33.5140000000    19.7200000000   -11.8580000000
| 71> O          34.2880000000    19.8610000000   -10.9080000000
| 72> N          32.5930000000    20.6240000000   -12.1920000000
| 73> H          32.0214666996    20.5182191672   -13.0017962261
| 74> C          32.3570000000    21.8290000000   -11.3980000000
| 75> H          31.5445245339    22.3773836896   -11.8513339424
| 76> H          33.2592583722    22.4224125827   -11.4100022426
| 77> C          31.9960000000    21.4920000000    -9.9610000000
| 78> O          32.4880000000    22.1240000000    -9.0230000000
| 79> N          31.1420000000    20.4840000000    -9.7950000000
| 80> H          30.7314264730    20.0096456264   -10.5696089898
| 81> C          30.7480000000    20.0040000000    -8.4730000000
| 82> H          30.4850038778    20.8616429962    -7.8718185003
| 83> C          29.5620000000    19.0430000000    -8.5720000000
| 84> H          29.5038031128    18.4547101121    -7.6319291424
| 85> H          29.7389033609    18.3488248049    -9.4205464552
| 86> C          28.2210000000    19.7480000000    -8.7900000000
| 87> H          28.3520790876    20.5326302287    -9.5650393904
| 88> H          27.9093646086    20.2249840313    -7.8366469718
| 89> C          27.1100000000    18.8130000000    -9.2410000000
| 90> O          27.4020000000    17.6800000000    -9.6760000000
| 91> O          25.9330000000    19.2210000000    -9.1640000000
| 92> C          31.9190000000    19.3640000000    -7.7200000000
| 93> O          32.0790000000    19.5890000000    -6.5210000000
| 94> N          32.7440000000    18.5880000000    -8.4260000000
| 95> H          32.5896238659    18.3814626873    -9.3890201104
| 96> C          33.9360000000    17.9910000000    -7.8140000000
| 97> H          33.6250658072    17.4923235119    -6.9080992433
| 98> C          34.6240000000    16.9920000000    -8.7530000000
| 99> H          35.6623138751    16.8250886259    -8.3959535047
|100> H          34.6545691305    17.4268087997    -9.7744911383
|101> C          33.9340000000    15.6600000000    -8.8300000000
|102> C          33.3930000000    15.0820000000    -9.9430000000
|103> H          33.3971260394    15.5195349749   -10.9303915562
|104> N          32.8420000000    13.8620000000    -9.6250000000
|105> H          32.4045828370    13.2563491342   -10.2529832593
|106> C          33.0070000000    13.6350000000    -8.2830000000
|107> C          33.6970000000    14.7460000000    -7.7480000000
|108> C          34.0020000000    14.7590000000    -6.3770000000
|109> H          34.5282684518    15.5844350577    -5.9208621950
|110> C          33.6100000000    13.6720000000    -5.5940000000
|111> H          33.8339051506    13.6692530838    -4.5375093696
|112> C          32.6140000000    12.5440000000    -7.4970000000
|113> H          32.0838765940    11.6982349032    -7.9093484669
|114> C          32.9270000000    12.5790000000    -6.1610000000
|115> H          32.6430088253    11.7495168924    -5.5305162685
|116> C          34.9320000000    19.0450000000    -7.3330000000
|117> O          35.5480000000    18.8800000000    -6.2820000000
|118> N          35.0720000000    20.1290000000    -8.0950000000
|119> H          34.5651631217    20.2506847627    -8.9447886397
|120> C          35.9860000000    21.2130000000    -7.7250000000
|121> H          36.9241006556    20.7689481004    -7.4268446184
|122> C          36.2060000000    22.1780000000    -8.8980000000
|123> H          36.7079120738    23.0900322184    -8.5117541969
|124> H          35.2143050688    22.4598754236    -9.3103005294
|125> C          37.0600000000    21.6010000000   -10.0400000000
|126> H          37.2055626895    22.3875246040   -10.8105590082
|127> H          36.5197091541    20.7424479205   -10.4922662525
|128> C          38.4330000000    21.1170000000    -9.5830000000
|129> O          39.0610000000    21.7150000000    -8.7070000000
|130> N          38.9050000000    20.0270000000   -10.1810000000
|131> H          38.4411085819    19.6579392960   -10.9863564112
|132> H          39.7238199723    19.5764163733    -9.8253200198
|133> C          35.5420000000    21.9610000000    -6.4650000000
|134> O          36.3780000000    22.3760000000    -5.6600000000
|135> N          34.2320000000    22.1210000000    -6.2950000000
|136> H          33.5728308918    21.8677379611    -6.9986154661
|137> C          33.6720000000    22.6810000000    -5.0600000000
|138> H          34.1588618758    23.6263531226    -4.8718138263
|139> C          32.1580000000    22.8800000000    -5.1880000000
|140> H          31.7596232296    23.0684833812    -4.1697455721
|141> H          31.7291388027    21.9326887939    -5.5749776071
|142> C          31.6620000000    24.0130000000    -6.0930000000
|143> H          32.2244635836    23.9918932534    -7.0507183466
|144> C          30.1710000000    23.8580000000    -6.3790000000
|145> H          29.5951637181    23.8856634482    -5.4292798780
|146> H          29.9813218388    22.8850188936    -6.8805815610
|147> H          29.8224027292    24.6884371276    -7.0294676937
|148> C          31.9500000000    25.3740000000    -5.4760000000
|149> H          33.0433357635    25.5011559803    -5.3251051199
|150> H          31.4439024546    25.4571538689    -4.4905027604
|151> H          31.5890991362    26.1792096708    -6.1510126319
|152> C          33.9880000000    21.7910000000    -3.8560000000
|153> O          34.3260000000    22.2890000000    -2.7780000000
|154> N          33.8780000000    20.4790000000    -4.0560000000
|155> H          33.5484590884    20.1089221074    -4.9207708872
|156> C          34.2270000000    19.4880000000    -3.0370000000
|157> H          33.7171695115    19.7586601206    -2.1243687991
|158> C          33.8150000000    18.0490000000    -3.4750000000
|159> H          34.2220551545    17.8470037350    -4.4885750451
|160> C          34.3450000000    16.9930000000    -2.5030000000
|161> H          34.0891734807    17.2726940223    -1.4586604738
|162> H          35.4501332659    16.9197283380    -2.5899817734
|163> H          33.8857764310    16.0068868047    -2.7287179222
|164> C          32.3010000000    17.9410000000    -3.5890000000
|165> H          31.9223171904    18.6640826166    -4.3427054194
|166> H          31.8306385931    18.1710445447    -2.6091562599
|167> H          32.0180365105    16.9151714662    -3.9081576156
|168> C          35.7210000000    19.5470000000    -2.7020000000
|169> O          36.1000000000    19.5760000000    -1.5310000000
|170> N          36.5590000000    19.5860000000    -3.7330000000
|171> H          36.2398735201    19.6282828408    -4.6765076623
|172> C          38.0070000000    19.5690000000    -3.5410000000
|173> H          38.2307993729    18.8552927615    -2.7621162187
|174> C          38.7310000000    19.1830000000    -4.8380000000
|175> H          39.8194723276    19.3284814832    -4.6766796932
|176> H          38.3889573324    19.8730247988    -5.6372707313
|177> C          38.5160000000    17.7450000000    -5.3330000000
|178> H          37.4271665800    17.5281973887    -5.3712968389
|179> C          39.1150000000    17.5600000000    -6.7180000000
|180> H          40.2064762747    17.7657960993    -6.6925341949
|181> H          38.6380054874    18.2635636828    -7.4333519972
|182> H          38.9590325068    16.5148549552    -7.0609286765
|183> C          39.0730000000    16.7030000000    -4.3570000000
|184> H          38.5720808120    16.7982558705    -3.3699198177
|185> H          40.1639175309    16.8603938067    -4.2177871017
|186> H          38.8897832969    15.6803352745    -4.7505004441
|187> C          38.5490000000    20.8810000000    -2.9690000000
|188> O          39.5250000000    20.8740000000    -2.2190000000
|189> N          37.9020000000    21.9960000000    -3.3030000000
|190> H          37.1086868132    21.9929755732    -3.9067785261
|191> C          38.3280000000    23.3010000000    -2.7940000000
|192> H          39.4075024623    23.3242215076    -2.8080702087
|193> C          37.7670000000    24.4460000000    -3.6390000000
|194> H          37.7575551918    25.3718526983    -3.0255945474
|195> H          36.7268853873    24.1946087963    -3.9365276923
|196> N          38.3800000000    23.9990000000    -6.0450000000
|197> H          37.7146784744    23.2617424388    -6.1612463373
|198> C          38.5600000000    24.7120000000    -4.8800000000
|199> C          39.2170000000    24.4430000000    -6.9660000000
|200> H          39.2806338533    24.0557020583    -7.9821042675
|201> N          39.9390000000    25.4150000000    -6.4370000000
|202> C          39.5500000000    25.6010000000    -5.1320000000
|203> H          40.0163212330    26.3506230343    -4.5052863801
|204> C          38.0410000000    23.5180000000    -1.3080000000
|205> O          38.8160000000    24.1890000000    -0.6260000000
|206> N          36.9480000000    22.9500000000    -0.8010000000
|207> H          36.2542359070    22.5049600375    -1.3619194558
|208> C          36.7290000000    22.9650000000     0.6460000000
|209> H          37.1049977188    23.9067023679     1.0168061624
|210> C          35.2280000000    22.8020000000     1.0560000000
|211> H          34.6028979631    23.4482886569     0.4038660149
|212> C          34.7540000000    21.3560000000     0.9240000000
|213> H          35.3603273718    20.6941727546     1.5787311017
|214> H          34.8675094605    21.0153286242    -0.1273385358
|215> H          33.6887606333    21.2778505003     1.2296335192
|216> C          35.0050000000    23.3120000000     2.4800000000
|217> H          35.2772166526    24.3870141214     2.5475554058
|218> H          35.6396523202    22.7401039375     3.1902150567
|219> H          33.9356541886    23.1986829144     2.7591287775
|220> C          37.6510000000    21.9580000000     1.3430000000
|221> O          38.1350000000    22.2190000000     2.4460000000
|222> N          37.9210000000    20.8310000000     0.6820000000
|223> H          37.5419997944    20.6355901608    -0.2191600112
|224> C          38.8000000000    19.8100000000     1.2550000000
|225> H          38.4879775864    19.6463557686     2.2756915487
|226> C          38.7480000000    18.4930000000     0.4770000000
|227> H          39.5093679307    18.5102215008    -0.3318176900
|228> H          37.7402754049    18.3685411190     0.0262618399
|229> C          39.0240000000    17.3340000000     1.3820000000
|230> C          40.2010000000    16.6560000000     1.5190000000
|231> H          41.1018884435    16.8609579416     0.9597222834
|232> N          40.0720000000    15.6730000000     2.4740000000
|233> H          40.7730239740    15.0509882677     2.7463672310
|234> C          38.7990000000    15.7100000000     2.9800000000
|235> C          38.1110000000    16.7520000000     2.3200000000
|236> C          36.7730000000    17.0040000000     2.6600000000
|237> H          36.2051159704    17.7896321757     2.1839186986
|238> C          36.1730000000    16.2150000000     3.6370000000
|239> H          35.1443715287    16.3981777365     3.9102624652
|240> C          38.1930000000    14.9150000000     3.9600000000
|241> H          38.7198622754    14.1162155116     4.4607388229
|242> C          36.8850000000    15.1830000000     4.2740000000
|243> H          36.3906574091    14.5879956468     5.0275219647
|244> C          40.2420000000    20.2880000000     1.3860000000
|245> O          40.9590000000    19.8650000000     2.2930000000
|246> N          40.6540000000    21.1760000000     0.4800000000
|247> H          40.0829119591    21.4443192867    -0.2916796369
|248> C          41.9660000000    21.8150000000     0.5550000000
|249> H          42.7163906750    21.0389994002     0.5852379443
|250> C          42.1850000000    22.7190000000    -0.6530000000
|251> H          41.4048846708    23.5093979654    -0.6848139824
|252> H          42.1235584548    22.1221703574    -1.5880258900
|253> H          43.1810758132    23.2063022625    -0.5850030888
|254> C          42.1480000000    22.5990000000     1.8620000000
|255> O          43.2640000000    22.7010000000     2.3760000000
|256> N          41.0490000000    23.1330000000     2.3970000000
|257> H          40.1599457424    23.0651119886     1.9513444945
|258> C          41.0720000000    23.8560000000     3.6760000000
|259> H          41.9959123554    24.4128142784     3.7254544743
|260> C          39.8740000000    24.8070000000     3.8000000000
|261> H          40.0086118934    25.4141811929     4.7196101203
|262> H          38.9549308259    24.1931104615     3.9045161418
|263> C          39.6770000000    25.7600000000     2.6270000000
|264> H          38.8062803087    26.4162325217     2.8387359944
|265> H          39.4655765686    25.1662445155     1.7124615416
|266> C          40.9030000000    26.6310000000     2.3780000000
|267> H          41.8111469144    25.9913614595     2.3673065165
|268> H          40.9971788217    27.3745381608     3.1979170593
|269> C          40.7880000000    27.3590000000     1.0530000000
|270> H          40.0560542076    28.1897916808     1.1436097362
|271> H          40.4642142601    26.6494578166     0.2618727859
|272> N          42.0900000000    27.9450000000     0.6320000000
|273> H          42.7946049978    27.1870772210     0.5286324128
|274> H          42.4134753063    28.6233628669     1.3508791158
|275> H          41.9717168100    28.4348020858    -0.2777816440
|276> C          41.1020000000    22.8950000000     4.8610000000
|277> O          41.7730000000    23.1600000000     5.8630000000
|278> N          40.3640000000    21.7890000000     4.7450000000
|279> H          39.7422110245    21.6509628893     3.9782687500
|280> C          40.4130000000    20.7040000000     5.7290000000
|281> H          40.0480711940    21.0941214208     6.6674410496
|282> C          39.5530000000    19.4850000000     5.2880000000
|283> H          39.8853456518    19.1486853154     4.2828468600
|284> C          39.6880000000    18.3210000000     6.2790000000
|285> H          39.5240139137    18.6821397780     7.3167897785
|286> H          40.7072297854    17.8839725365     6.2124286737
|287> H          38.9307506377    17.5406609803     6.0511875369
|288> C          38.0950000000    19.8840000000     5.1330000000
|289> H          37.9968624382    20.6813148094     4.3655502533
|290> H          37.7041333498    20.2708254261     6.0983203884
|291> H          37.4948790021    19.0061805729     4.8112206626
|292> C          41.8610000000    20.2560000000     5.9310000000
|293> O          42.3130000000    20.0630000000     7.0630000000
|294> N          42.5850000000    20.1240000000     4.8210000000
|295> H          42.2221445609    20.3718993304     3.9263591854
|296> C          43.9550000000    19.6100000000     4.8300000000
|297> H          43.9987663665    18.7831184661     5.5231997861
|298> C          44.3610000000    19.1530000000     3.4310000000
|299> H          45.4547665753    18.9604812061     3.4207807012
|300> H          44.1320991247    19.9650827740     2.7087679053
|301> C          43.6350000000    17.8860000000     2.9920000000
|302> H          42.5398169867    18.0585741707     3.0585479664
|303> H          43.9159136448    17.0564480417     3.6750573779
|304> C          43.9670000000    17.4720000000     1.5780000000
|305> O          44.3200000000    18.3480000000     0.7610000000
|306> O          43.8670000000    16.2640000000     1.2850000000
|307> C          44.9870000000    20.5740000000     5.4160000000
|308> O          46.1610000000    20.2240000000     5.5530000000
|309> N          44.5510000000    21.7830000000     5.7650000000
|310> H          43.6441306201    22.1159658622     5.5187633294
|311> C          45.3900000000    22.6940000000     6.5360000000
|312> H          46.3508682632    22.7573890650     6.0472637833
|313> C          44.7530000000    24.0680000000     6.6240000000
|314> H          43.7611045449    23.9979616571     7.1195391374
|315> H          44.6112957224    24.4851327137     5.6041106444
|316> H          45.3997924708    24.7472307307     7.2194487509
|317> C          45.6280000000    22.1200000000     7.9320000000
|318> O          46.6880000000    22.3200000000     8.5220000000
|319> N          44.6320000000    21.3970000000     8.4450000000
|320> H          43.7979506139    21.2159910043     7.9301615702
|321> C          44.6850000000    20.8210000000     9.7850000000
|322> H          45.6728312358    20.4122869682     9.9377539908
|323> C          44.3820000000    21.9030000000    10.8360000000
|324> H          43.4013160810    22.3676161233    10.5993832626
|325> H          45.1745943069    22.6796693054    10.7893563924
|326> C          44.3250000000    21.3600000000    12.2600000000
|327> O          44.8510000000    20.2590000000    12.5330000000
|328> O          43.7430000000    22.0540000000    13.1140000000
|329> C          43.6920000000    19.6630000000     9.8770000000
|330> O          42.6240000000    19.7920000000    10.4800000000
|331> N          44.0450000000    18.5340000000     9.2680000000
|332> H          44.9303319663    18.4190091102     8.8242702985
|333> C          43.1350000000    17.3860000000     9.2190000000
|334> H          42.1656206816    17.7525478512     8.9159444462
|335> C          43.6170000000    16.2760000000     8.2260000000
|336> H          43.8581810633    16.7467342050     7.2493357942
|337> C          44.8560000000    15.5360000000     8.7400000000
|338> H          44.5875565391    14.9015338827     9.6116145101
|339> H          45.6285515775    16.2680212166     9.0586896597
|340> H          45.2661468439    14.8838715801     7.9395237723
|341> C          42.4830000000    15.3050000000     7.9190000000
|342> H          41.6301314029    15.8475132508     7.4578974856
|343> H          42.1321477456    14.8245413263     8.8572517035
|344> H          42.8338543454    14.5263277924     7.2084896749
|345> C          42.7950000000    16.8380000000    10.6160000000
|346> O          41.6490000000    16.4600000000    10.8710000000
|347> N          43.7800000000    16.8390000000    11.5160000000
|348> H          44.6968266400    17.1597113659    11.2919903567
|349> C          43.5850000000    16.3710000000    12.8910000000
|350> H          43.2040301504    15.3613864042    12.8497705407
|351> C          44.9020000000    16.4100000000    13.6660000000
|352> H          45.2951897610    17.4485843878    13.6986386478
|353> H          45.6536872198    15.7616882311    13.1670889111
|354> H          44.7383580611    16.0598048749    14.7075559471
|355> C          42.5030000000    17.1680000000    13.6220000000
|356> O          41.5970000000    16.5870000000    14.2220000000
|357> N          42.6020000000    18.4940000000    13.5540000000
|358> H          43.3574714024    18.9380030638    13.0790681271
|359> C          41.6210000000    19.3940000000    14.1640000000
|360> H          41.9306755824    20.4085994555    13.9614994900
|361> H          41.6191998257    19.2105099393    15.2282582558
|362> C          40.2170000000    19.1870000000    13.6230000000
|363> O          39.2540000000    19.1370000000    14.3910000000
|364> N          40.1060000000    19.0600000000    12.3000000000
|365> H          40.8971982159    19.1292061449    11.6976894461
|366> C          38.8210000000    18.8110000000    11.6390000000
|367> H          38.1200834523    19.5586646250    11.9793847401
|368> C          38.9710000000    18.8780000000    10.1160000000
|369> H          38.0565298194    18.4540423712     9.6497184159
|370> H          39.8495104646    18.2673553644     9.8180960044
|371> N          40.3730000000    20.9240000000     9.6580000000
|372> H          41.2052551684    20.5419684196    10.0594223094
|373> C          39.1650000000    20.2650000000     9.5880000000
|374> C          40.2500000000    22.1230000000     9.1160000000
|375> H          41.0537296807    22.8547331239     9.0445475263
|376> N          39.0070000000    22.2610000000     8.6910000000
|377> C          38.3070000000    21.1140000000     8.9760000000
|378> H          37.2612913910    21.0111770857     8.7150867290
|379> C          38.2230000000    17.4620000000    12.0390000000
|380> O          37.0180000000    17.3580000000    12.2780000000
|381> N          39.0750000000    16.4390000000    12.1080000000
|382> H          40.0419046099    16.5472483440    11.8915029865
|383> C          38.6600000000    15.0920000000    12.5030000000
|384> H          39.5231242541    14.4464362553    12.4353841506
|385> H          37.8956996356    14.7654464843    11.8134235475
|386> C          38.1090000000    15.0340000000    13.9150000000
|387> O          37.1150000000    14.3500000000    14.1690000000
|388> N          38.7580000000    15.7510000000    14.8320000000
|389> H          39.6010800740    16.2382993025    14.6189955494
|390> C          38.2810000000    15.8730000000    16.2100000000
|391> H          38.1883227763    14.8777753115    16.6187233704
|392> C          39.2480000000    16.7050000000    17.0580000000
|393> H          38.7272457372    17.0008512897    17.9929514320
|394> H          39.5135542725    17.6203909903    16.4884497992
|395> C          40.5390000000    15.9820000000    17.4350000000
|396> H          41.0579616229    15.6613294717    16.5067583210
|397> H          40.2875414920    15.0854887176    18.0406562619
|398> C          41.4850000000    16.8580000000    18.2390000000
|399> O          41.9160000000    16.4870000000    19.3330000000
|400> N          41.8060000000    18.0290000000    17.7040000000
|401> H          42.4249829186    18.6471967237    18.1884511919
|402> H          41.4289450921    18.2933506298    16.8163354570
|403> C          36.8820000000    16.4840000000    16.2540000000
|404> O          35.9810000000    15.9220000000    16.8740000000
|405> N          36.7070000000    17.6180000000    15.5740000000
|406> H          37.4559814009    18.0524132623    15.0802825845
|407> C          35.4140000000    18.3070000000    15.5000000000
|408> H          35.1164896578    18.5687638288    16.5045525627
|409> C          35.5210000000    19.5650000000    14.6320000000
|410> H          34.4983639726    19.8967505536    14.3530732728
|411> H          36.0886575045    19.3177121691    13.7099063606
|412> C          36.2240000000    20.7160000000    15.3340000000
|413> O          36.7060000000    20.5470000000    16.4760000000
|414> O          36.2920000000    21.8050000000    14.7260000000
|415> C          34.2930000000    17.4150000000    14.9610000000
|416> O          33.1900000000    17.4030000000    15.5080000000
|417> N          34.5870000000    16.6740000000    13.8920000000
|418> H          35.5022979468    16.6590561994    13.4974997160
|419> C          33.5880000000    15.8320000000    13.2240000000
|420> H          32.6688862083    16.3957565748    13.1653061305
|421> C          34.0480000000    15.4100000000    11.7950000000
|422> H          35.0889103405    15.0255290318    11.8457391748
|423> C          33.1360000000    14.3200000000    11.2150000000
|424> H          32.0913140975    14.6920933928    11.1479263685
|425> H          33.1520093940    13.4243899921    11.8721761665
|426> H          33.4797201739    14.0422656040    10.1956991867
|427> C          34.0690000000    16.6310000000    10.8650000000
|428> H          34.4779255362    17.4922179876    11.4338618698
|429> H          33.0234899737    16.8583065484    10.5687554030
|430> C          34.8960000000    16.4640000000     9.5970000000
|431> H          34.5010687967    15.6200223816     8.9919775836
|432> H          35.9531540379    16.2470668333     9.8608549638
|433> H          34.8452915464    17.3915120008     8.9875705604
|434> C          33.1670000000    14.6290000000    14.0810000000
|435> O          31.9710000000    14.3860000000    14.2580000000
|436> N          34.1420000000    13.8950000000    14.6210000000
|437> H          35.1060908779    14.0988059877    14.4699871013
|438> C          33.8500000000    12.7350000000    15.4760000000
|439> H          33.1520441717    12.1029155969    14.9474263113
|440> C          35.1230000000    11.9470000000    15.8140000000
|441> H          34.8692009988    11.2458321104    16.6353883455
|442> H          35.8755093800    12.6757970330    16.1791214513
|443> C          35.7850000000    11.1260000000    14.7010000000
|444> H          35.9609151027    11.7778150541    13.8188433627
|445> C          37.1110000000    10.5500000000    15.1730000000
|446> H          36.9490710787     9.8883771127    16.0506987977
|447> H          37.7960963927    11.3724604475    15.4704152749
|448> H          37.5748351913     9.9525642808    14.3592545991
|449> C          34.8700000000    10.0140000000    14.1840000000
|450> H          33.9338797073    10.4496278035    13.7738436708
|451> H          34.6063229417     9.3246100566    15.0143433119
|452> H          35.3816009252     9.4482801640    13.3762378685
|453> C          33.1160000000    13.1260000000    16.7570000000
|454> O          32.1790000000    12.4390000000    17.1750000000
|455> N          33.5420000000    14.2300000000    17.3700000000
|456> H          34.3270125881    14.7487284150    17.0407289968
|457> C          32.8830000000    14.7520000000    18.5680000000
|458> H          32.7807290207    13.9359602912    19.2677281646
|459> C          33.6880000000    15.9120000000    19.2190000000
|460> H          34.0052582409    16.6251015795    18.4285850891
|461> C          32.8470000000    16.6520000000    20.2540000000
|462> H          32.5293342607    15.9538003966    21.0576957085
|463> H          31.9395408884    17.0743254015    19.7719073568
|464> H          33.4434101531    17.4705911664    20.7105714976
|465> C          34.9590000000    15.3580000000    19.8780000000
|466> H          35.4148421259    14.6185939859    19.1865221824
|467> H          34.6669380264    14.8415479758    20.8164199379
|468> C          36.0090000000    16.4020000000    20.2170000000
|469> H          35.5899532781    17.1493119299    20.9242805131
|470> H          36.3302206911    16.9290693005    19.2932742178
|471> H          36.8861973438    15.9150273894    20.6941127720
|472> C          31.4320000000    15.1520000000    18.2640000000
|473> O          30.5210000000    14.7860000000    19.0080000000
|474> N          31.2210000000    15.8700000000    17.1600000000
|475> H          31.9666079641    16.1903989611    16.5809452286
|476> C          29.8660000000    16.2300000000    16.7350000000
|477> H          29.3895675430    16.7463658824    17.5550210156
|478> C          29.8820000000    17.1240000000    15.4880000000
|479> H          30.6407941306    16.7272742300    14.7810056192
|480> H          30.1771035200    18.1495853266    15.7947402388
|481> C          28.5380000000    17.2040000000    14.7610000000
|482> H          27.7486074754    16.7729200981    15.4127147495
|483> H          28.5971651245    16.6076644419    13.8258070014
|484> C          28.1660000000    18.6260000000    14.4140000000
|485> H          27.4513576063    18.6282641770    13.5634453801
|486> H          29.0806688283    19.1965847664    14.1457165719
|487> N          27.5240000000    19.3170000000    15.5360000000
|488> H          28.1061391598    19.6072999058    16.2943106276
|489> C          26.2210000000    19.5870000000    15.6200000000
|490> N          25.7450000000    20.2220000000    16.6830000000
|491> H          26.3631016896    20.4972131489    17.4193477602
|492> H          24.7680763638    20.4254673891    16.7479709986
|493> N          25.3910000000    19.2330000000    14.6480000000
|494> H          25.7404235397    18.7579286246    13.8404045702
|495> H          24.4157626070    19.4411579970    14.7227146281
|496> C          28.9990000000    14.9890000000    16.5110000000
|497> O          27.8450000000    14.9540000000    16.9400000000
|498> N          29.5680000000    13.9810000000    15.8490000000
|499> H          30.4929619844    14.0492560804    15.4838765710
|500> C          28.8830000000    12.7100000000    15.6110000000
|501> H          27.9746852145    12.9171730363    15.0649272051
|502> C          29.7780000000    11.7510000000    14.8120000000
|503> H          30.7578705752    11.7077502361    15.3301256114
|504> H          29.9192187911    12.1953422766    13.8054771589
|505> C          29.3070000000    10.3030000000    14.6080000000
|506> H          29.1314978787     9.8346751425    15.5998177412
|507> C          28.0180000000    10.2430000000    13.7920000000
|508> H          28.1216990999    10.8526198391    12.8689988362
|509> H          27.1727884161    10.6458065902    14.3900119815
|510> H          27.8032216455     9.1925506394    13.5010008592
|511> C          30.4000000000     9.4680000000    13.9480000000
|512> H          31.3095185529     9.4567147242    14.5859417250
|513> H          30.6645454224     9.9036556942    12.9608455358
|514> H          30.0481318737     8.4228463865    13.8134754800
|515> C          28.4400000000    12.0500000000    16.9170000000
|516> O          27.2780000000    11.6550000000    17.0530000000
|517> N          29.3720000000    11.9410000000    17.8650000000
|518> H          30.2953333509    12.2934173543    17.7354549700
|519> C          29.1110000000    11.3010000000    19.1560000000
|520> H          28.6145572188    10.3610465193    18.9658984945
|521> C          30.4140000000    11.0640000000    19.9330000000
|522> H          30.1728653817    10.6093957899    20.9174453883
|523> H          30.9330435113    12.0354031128    20.0776147997
|524> C          31.3880000000    10.1390000000    19.2440000000
|525> C          30.9410000000     9.1010000000    18.4240000000
|526> H          29.8810768251     8.9601430417    18.2721408597
|527> C          31.8470000000     8.2430000000    17.7980000000
|528> H          31.4873681615     7.4487899360    17.1605873359
|529> C          33.2130000000     8.4120000000    17.9960000000
|530> H          33.9159533089     7.7497042289    17.5126585211
|531> C          32.7590000000    10.2880000000    19.4430000000
|532> H          33.1207110114    11.0735779126    20.0898028919
|533> C          33.6720000000     9.4360000000    18.8180000000
|534> H          34.7322234881     9.5718299026    18.9725142232
|535> C          28.1240000000    12.0930000000    20.0110000000
|536> O          27.3170000000    11.5090000000    20.7360000000
|537> N          28.1930000000    13.4200000000    19.9200000000
|538> H          28.8698746726    13.8752897853    19.3470771566
|539> C          27.2810000000    14.2970000000    20.6540000000
|540> H          27.1612480198    13.8953871104    21.6492412394
|541> C          27.8310000000    15.7240000000    20.7210000000
|542> H          26.9892686956    16.4138990224    20.9411000817
|543> H          28.2580002665    15.9818109026    19.7289714687
|544> C          28.9110000000    15.9300000000    21.7780000000
|545> H          29.7143544801    15.1781923316    21.6258505360
|546> H          28.4654201135    15.7810008966    22.7844792508
|547> C          29.5190000000    17.3300000000    21.7050000000
|548> H          29.7531863880    17.5646388716    20.6449733873
|549> H          30.4613226041    17.3430235913    22.2927189634
|550> C          28.5820000000    18.4030000000    22.2520000000
|551> H          28.3949623959    18.2218743860    23.3319899268
|552> H          27.6236930054    18.3852687504    21.6903051519
|553> N          29.1630000000    19.7690000000    22.1150000000
|554> H          29.3395973874    19.9719937016    21.1104070875
|555> H          30.0584995559    19.8192390765    22.6414562819
|556> H          28.4963962214    20.4692805376    22.4982051763
|557> C          25.8710000000    14.3020000000    20.0620000000
|558> O          24.8890000000    14.2030000000    20.7980000000
|559> N          25.7760000000    14.4130000000    18.7380000000
|560> H          26.5806646995    14.4655345589    18.1519012797
|561> C          24.4790000000    14.4650000000    18.0580000000
|562> H          23.8233807601    15.0961489491    18.6393314967
|563> C          24.6260000000    15.0190000000    16.6390000000
|564> H          23.6423233259    14.9873945452    16.1236440818
|565> H          25.3594007229    14.4048328466    16.0740818523
|566> O          25.0820000000    16.3610000000    16.6630000000
|567> H          25.9944453216    16.3251715806    16.9592429063
|568> C          23.7770000000    13.1080000000    18.0230000000
|569> O          22.5450000000    13.0420000000    18.0480000000
|570> N          24.5650000000    12.0350000000    17.9560000000
|571> H          25.5581679324    12.1116667435    17.9185010564
|572> C          24.0270000000    10.6750000000    17.9330000000
|573> H          23.0477743212    10.6958453620    18.3877826904
|574> C          23.9340000000    10.1490000000    16.4940000000
|575> H          23.3350882508     9.2137061454    16.4945175312
|576> H          24.9590187258     9.9260076462    16.1291970839
|577> N          21.9320000000    11.2210000000    15.3930000000
|578> H          21.2615410756    10.6702396121    15.8898813179
|579> C          23.2970000000    11.1130000000    15.5420000000
|580> C          21.6620000000    12.1570000000    14.5000000000
|581> H          20.6579207396    12.4449591710    14.1910132626
|582> N          22.8030000000    12.6610000000    14.0670000000
|583> C          23.8410000000    12.0280000000    14.7050000000
|584> H          24.8718088924    12.2896378312    14.5021531478
|585> C          24.8660000000     9.7450000000    18.8140000000
|586> O          25.7220000000     9.0150000000    18.3100000000
|587> N          24.6140000000     9.7680000000    20.1410000000
|588> C          23.5420000000    10.5550000000    20.7790000000
|589> H          22.5594198284    10.0644509159    20.6167822480
|590> H          23.5251655628    11.5846287613    20.3642735692
|591> C          25.3820000000     9.0090000000    21.1340000000
|592> H          26.4069366130     9.3432943828    21.1534714350
|593> C          24.6050000000     9.2480000000    22.4320000000
|594> H          25.2933223937     9.2947728994    23.3026459061
|595> H          23.8630310054     8.4393526118    22.6039625779
|596> C          23.9290000000    10.5490000000    22.2230000000
|597> H          23.0311443327    10.6347642759    22.8715349367
|598> H          24.6171995105    11.3910979863    22.4496060229
|599> C          25.4950000000     7.5110000000    20.8470000000
|600> O          26.5070000000     6.9000000000    21.1980000000
|601> N          24.4800000000     6.9340000000    20.2050000000
|602> H          23.6755751942     7.4483461256    19.9185601679
|603> C          24.4790000000     5.5030000000    19.8770000000
|604> H          24.6796414951     4.9547463919    20.7854374675
|605> C          23.1280000000     5.0660000000    19.2810000000
|606> H          22.3266933026     5.3831787034    19.9806031751
|607> H          23.1275626244     3.9582557613    19.2099938997
|608> C          22.7940000000     5.6300000000    17.8910000000
|609> H          22.1670123405     4.8909535355    17.3486763046
|610> H          23.7416440568     5.7844112653    17.3328368559
|611> C          22.0420000000     6.9560000000    17.9290000000
|612> O          22.3290000000     7.8040000000    18.8020000000
|613> O          21.1580000000     7.1520000000    17.0670000000
|614> C          25.6450000000     5.0880000000    18.9670000000
|615> O          26.0920000000     3.9390000000    19.0070000000
|616> N          26.1370000000     6.0300000000    18.1620000000
|617> H          25.7646276075     6.9544810510    18.1460908918
|618> C          27.2550000000     5.7760000000    17.2470000000
|619> H          27.0404549000     4.8613687972    16.7146543462
|620> C          27.4650000000     6.9370000000    16.2400000000
|621> H          28.3018496627     6.6920387987    15.5515550810
|622> O          27.7820000000     8.1430000000    16.9460000000
|623> H          26.9764940495     8.4044794976    17.3980936143
|624> C          26.2160000000     7.1590000000    15.3890000000
|625> H          25.3512535256     7.4123064839    16.0389002694
|626> H          25.9750690392     6.2341451844    14.8225638228
|627> H          26.3852027449     7.9980682847    14.6807705559
|628> C          28.5660000000     5.4930000000    17.9880000000
|629> O          29.4070000000     4.7370000000    17.4980000000
|630> N          28.7240000000     6.0970000000    19.1670000000
|631> H          28.0385876085     6.7224907333    19.5309544716
|632> C          29.9070000000     5.8890000000    20.0100000000
|633> H          30.7838291971     6.0414517007    19.3983805791
|634> C          29.9090000000     6.8660000000    21.1980000000
|635> H          28.9886480038     6.6677521330    21.7842924346
|636> H          29.8576489428     7.8908004666    20.7770060510
|637> C          31.0880000000     6.8420000000    22.1860000000
|638> H          31.1325760525     5.8433660263    22.6701648098
|639> C          32.4240000000     7.1190000000    21.4950000000
|640> H          32.4045954183     8.1201745196    21.0137578121
|641> H          32.6109916223     6.3528859795    20.7124672266
|642> H          33.2467918257     7.1000671161    22.2412635313
|643> C          30.8660000000     7.8240000000    23.3340000000
|644> H          29.9407261067     7.5594789312    23.8891736904
|645> H          30.7572880892     8.8548142687    22.9341778339
|646> H          31.7251850112     7.7841641285    24.0371844144
|647> C          30.0170000000     4.4460000000    20.5070000000
|648> O          31.1240000000     3.9320000000    20.6970000000
|649> N          28.8640000000     3.8040000000    20.7020000000
|650> H          27.9862439384     4.2423891474    20.5266079413
|651> C          28.7960000000     2.4220000000    21.1830000000
|652> H          29.4373357039     2.3368911446    22.0476401321
|653> C          27.3550000000     2.0470000000    21.5500000000
|654> H          27.3268570983     0.9643293946    21.7947432231
|655> H          26.7091818323     2.2334201884    20.6662391072
|656> C          26.7830000000     2.8250000000    22.7380000000
|657> H          25.7403697601     2.4878055135    22.9192634922
|658> H          26.7784699878     3.9074936771    22.4893610839
|659> C          27.5810000000     2.6300000000    24.0210000000
|660> O          27.8060000000     1.4660000000    24.4260000000
|661> O          27.9830000000     3.6480000000    24.6270000000
|662> C          29.3790000000     1.4080000000    20.1960000000
|663> O          29.7190000000     0.2870000000    20.5820000000
|664> N          29.4990000000     1.8060000000    18.9290000000
|665> H          29.1575519897     2.6894703185    18.6181928625
|666> C          30.1390000000     0.9730000000    17.9130000000
|667> H          29.8296633149    -0.0484953325    18.0772660374
|668> C          29.7450000000     1.4260000000    16.5000000000
|669> H          30.4173959555     0.9241759460    15.7727957745
|670> H          29.8951620095     2.5239529393    16.4312948210
|671> C          28.3000000000     1.1140000000    16.1120000000
|672> H          28.0254614779     1.7219361088    15.2238958481
|673> H          27.6322918581     1.3888636247    16.9559801669
|674> C          28.1010000000    -0.3620000000    15.7830000000
|675> H          28.4958268734    -0.9779862426    16.6187896494
|676> H          28.6645276703    -0.6082460432    14.8579750814
|677> C          26.6280000000    -0.6900000000    15.5730000000
|678> H          26.2101917726    -0.0435290355    14.7719500571
|679> H          26.0698312550    -0.5327320491    16.5205673473
|680> N          26.4320000000    -2.1100000000    15.1600000000
|681> H          26.9513093845    -2.7351283234    15.8089471030
|682> H          26.7886375812    -2.2418773524    14.1920032874
|683> H          25.4189442937    -2.3432167870    15.1904582063
|684> C          31.6610000000     0.9500000000    18.0650000000
|685> O          32.3240000000     0.0530000000    17.5500000000
|686> N          32.2020000000     1.9370000000    18.7800000000
|687> H          31.6445435588     2.6617935952    19.1767050891
|688> C          33.6390000000     2.0320000000    19.0350000000
|689> H          34.1498748237     1.4263356946    18.3012841044
|690> C          34.1090000000     3.4910000000    18.9430000000
|691> H          35.1555565919     3.5592166806    19.3090475580
|692> H          33.4442017150     4.1266986664    19.5657804398
|693> C          34.0900000000     4.0630000000    17.5520000000
|694> C          32.9470000000     4.6810000000    17.0540000000
|695> H          32.0624674093     4.7421191905    17.6706053870
|696> C          32.9290000000     5.2220000000    15.7700000000
|697> H          32.0317898811     5.6906069089    15.3934084758
|698> C          34.0660000000     5.1580000000    14.9750000000
|699> H          34.0557425373     5.5786635824    13.9803474872
|700> C          35.2260000000     4.0110000000    16.7500000000
|701> H          36.1248130582     3.5471222703    17.1285318680
|702> C          35.2190000000     4.5500000000    15.4640000000
|703> H          36.1052876882     4.4959755251    14.8492059035
|704> C          34.0090000000     1.4760000000    20.4120000000
|705> O          33.9630000000     2.2040000000    21.4090000000
|706> N          34.3880000000     0.1990000000    20.4680000000
|707> H          34.3532599363    -0.3993034323    19.6713886324
|708> C          34.8820000000    -0.4080000000    21.7110000000
|709> H          34.1378687529    -0.2499299668    22.4774306114
|710> C          35.1410000000    -1.9090000000    21.5240000000
|711> H          35.6889616722    -2.2930303251    22.4105470065
|712> H          35.7651996484    -2.0564499868    20.6171702586
|713> C          33.8580000000    -2.7160000000    21.3630000000
|714> O          32.7750000000    -2.2290000000    21.7550000000
|715> O          33.9360000000    -3.8510000000    20.8460000000
|716> C          36.1530000000     0.2970000000    22.1910000000
|717> O          36.4610000000     0.3150000000    23.3850000000
|718> N          36.8680000000     0.8830000000    21.2350000000
|719> H          36.5895511887     0.8219751238    20.2804099576
|720> C          38.0880000000     1.6480000000    21.4680000000
|721> H          38.7389639495     1.0750981137    22.1115571940
|722> C          38.7510000000     1.9090000000    20.1090000000
|723> H          38.0940870531     2.6019778464    19.5437355951
|724> H          38.8034489664     0.9401362720    19.5706423630
|725> C          40.1470000000     2.5050000000    20.1160000000
|726> H          40.7985064179     1.9283878293    20.8068886750
|727> H          40.1035547025     3.5602255432    20.4607911373
|728> C          40.7160000000     2.4470000000    18.7000000000
|729> H          39.8972762323     2.6105220896    17.9671754810
|730> H          41.1859974169     1.4544847546    18.5323820626
|731> N          41.7370000000     3.4610000000    18.4460000000
|732> H          42.1005271433     3.9612852900    19.2308420769
|733> C          42.2170000000     3.7650000000    17.2410000000
|734> N          41.7730000000     3.1340000000    16.1590000000
|735> H          42.0231507597     3.4650906584    15.2491628864
|736> H          41.1887426530     2.3280866916    16.2546404302
|737> N          43.1460000000     4.7060000000    17.1160000000
|738> H          43.5919380785     5.0795424094    17.9293912334
|739> H          43.3994984804     5.0409288521    16.2084972813
|740> C          37.8170000000     2.9750000000    22.1920000000
|741> O          38.6530000000     3.4430000000    22.9720000000
|742> N          36.6500000000     3.5690000000    21.9440000000
|743> H          35.9214236189     3.1154441140    21.4368079991
|744> C          36.3650000000     4.9320000000    22.4040000000
|745> H          37.1792371442     5.2489393963    23.0386165538
|746> C          36.2190000000     5.8830000000    21.2070000000
|747> H          36.0587527161     6.9169904592    21.5800487851
|748> H          35.3537067726     5.5614274981    20.5890682770
|749> C          37.4190000000     5.9190000000    20.3040000000
|750> C          38.6730000000     6.2690000000    20.7970000000
|751> H          38.7850412649     6.5171111212    21.8420981016
|752> C          39.7820000000     6.3030000000    19.9610000000
|753> H          40.7515486315     6.5654240104    20.3578699676
|754> C          39.6400000000     5.9980000000    18.6110000000
|755> H          40.4987688726     6.0281928145    17.9567798281
|756> C          37.2910000000     5.6190000000    18.9520000000
|757> H          36.3224429193     5.3546694470    18.5540529073
|758> C          38.3940000000     5.6550000000    18.1060000000
|759> H          38.2811256411     5.4166261333    17.0587013743
|760> C          35.1560000000     5.1060000000    23.3290000000
|761> O          34.9540000000     6.1940000000    23.8690000000
|762> N          34.3610000000     4.0560000000    23.5190000000
|763> H          34.5805208516     3.1469149774    23.1735567838
|764> C          33.0970000000     4.1910000000    24.2620000000
|765> H          32.6081122114     5.0911260348    23.9202099640
|766> C          32.1790000000     2.9770000000    24.0450000000
|767> H          31.9806223561     2.8874255675    22.9565031919
|768> H          31.2215312455     3.1727682594    24.5714322773
|769> C          32.7190000000     1.6460000000    24.5340000000
|770> H          32.9068733992     1.7015238815    25.6275051694
|771> H          33.6760089059     1.4216522542    24.0163757018
|772> C          31.7150000000     0.5390000000    24.2470000000
|773> H          31.5841139146     0.4437662440    23.1480928761
|774> H          30.7384729228     0.8075642888    24.7031420754
|775> C          32.1750000000    -0.7940000000    24.8090000000
|776> H          32.3320357086    -0.7084336863    25.9054389157
|777> H          33.1170644445    -1.1094106106    24.3118171032
|778> N          31.1550000000    -1.8530000000    24.5730000000
|779> H          31.2333815958    -2.1987848066    23.5953041408
|780> H          30.2046797173    -1.4593276411    24.7263397215
|781> H          31.3140258440    -2.6407554182    25.2331150038
|782> C          33.2540000000     4.5240000000    25.7560000000
|783> O          32.2750000000     4.8680000000    26.4230000000
|784> N          34.4830000000     4.4390000000    26.2630000000
|785> H          35.2497306835     4.0975142514    25.7253681106
|786> C          34.7970000000     4.8380000000    27.6380000000
|787> H          34.0116859378     4.4695779776    28.2812035432
|788> C          36.1510000000     4.2650000000    28.0690000000
|789> H          36.1492910243     3.1700092403    27.8834521919
|790> H          36.2865079270     4.4510550397    29.1554882868
|791> N          37.7010000000     4.4490000000    26.0850000000
|792> H          37.2443921724     3.7314605626    25.5592877563
|793> C          37.3170000000     4.8610000000    27.3430000000
|794> C          38.7530000000     5.1470000000    25.6970000000
|795> H          39.2593845522     5.0213505791    24.7407782671
|796> N          39.0650000000     5.9990000000    26.6570000000
|797> C          38.1820000000     5.8410000000    27.6980000000
|798> H          38.2535267114     6.4428994424    28.5950888556
|799> C          34.7880000000     6.3610000000    27.8280000000
|800> O          34.6620000000     6.8490000000    28.9550000000
|801> N          34.9290000000     7.1030000000    26.7280000000
|802> H          35.0307840560     6.6924400937    25.8253849164
|803> C          34.9440000000     8.5680000000    26.7700000000
|804> H          35.6032187205     8.8709817082    27.5698478581
|805> C          35.4260000000     9.1540000000    25.4340000000
|806> H          35.4040559389    10.2596273490    25.5257830240
|807> H          34.7041962942     8.8415092444    24.6512698817
|808> C          36.8310000000     8.7560000000    24.9550000000
|809> H          36.9648970772     7.6613139401    25.0877308466
|810> C          37.0370000000     9.1110000000    23.4860000000
|811> H          37.0960157363    10.2137402796    23.3643364535
|812> H          36.1844727470     8.7326896087    22.8824002722
|813> H          37.9843008750     8.6623379134    23.1177915197
|814> C          37.9250000000     9.3730000000    25.8230000000
|815> H          37.8141838909     9.0340093958    26.8752006274
|816> H          37.8481522283    10.4810125364    25.7973730636
|817> H          38.9240471389     9.0586192386    25.4524279398
|818> C          33.5700000000     9.1180000000    27.1550000000
|819> O          32.5860000000     8.9210000000    26.4370000000
|820> N          33.5230000000     9.8040000000    28.2970000000
|821> H          34.3536449080    10.0561088352    28.7866399479
|822> C          32.2670000000    10.2390000000    28.9200000000
|823> H          31.4800613257     9.5786074876    28.5871473129
|824> C          32.3900000000    10.1970000000    30.4490000000
|825> H          31.4926709587    10.6876871692    30.8807845445
|826> H          33.2920084402    10.7757972585    30.7384576077
|827> C          32.5060000000     8.8070000000    31.0550000000
|828> H          33.4331271563     8.3201555762    30.6842507485
|829> H          31.6312958149     8.1963320084    30.7451380032
|830> C          32.5520000000     8.8880000000    32.5810000000
|831> H          31.6258017488     9.3819041330    32.9441736867
|832> H          33.4280175304     9.5001467536    32.8835710797
|833> C          32.6640000000     7.5110000000    33.2250000000
|834> H          32.8335842720     7.6241950890    34.3170483805
|835> H          33.5061983891     6.9524139075    32.7636703245
|836> N          31.4290000000     6.6930000000    33.0440000000
|837> H          31.2480298568     6.5574906896    32.0288709274
|838> H          30.6212742153     7.1840902310    33.4776001359
|839> H          31.5565574280     5.7670566747    33.5000237899
|840> C          31.8130000000    11.6390000000    28.5050000000
|841> O          30.6130000000    11.9190000000    28.4680000000
|842> N          32.7750000000    12.5140000000    28.2190000000
|843> H          33.7326732954    12.2422607324    28.1686223807
|844> C          32.5010000000    13.9300000000    27.9590000000
|845> H          31.4430515657    14.0329020925    27.7686137471
|846> C          32.9150000000    14.8150000000    29.1600000000
|847> H          32.6586123615    15.8762677013    28.9544213574
|848> O          34.3290000000    14.7080000000    29.3680000000
|849> H          34.4647683754    13.8864364606    29.8457031494
|850> C          32.1720000000    14.4140000000    30.4370000000
|851> H          32.3973127749    13.3568391848    30.6938387903
|852> H          31.0762535596    14.5162560097    30.2848896861
|853> H          32.4944746919    15.0605195400    31.2809648442
|854> C          33.2610000000    14.4290000000    26.7320000000
|855> O          34.1860000000    13.7650000000    26.2580000000
|856> N          32.8770000000    15.6070000000    26.2370000000
|857> H          32.0875654976    16.0962739792    26.5988853010
|858> C          33.5830000000    16.2640000000    25.1320000000
|859> H          33.6394915637    15.5656683569    24.3102433915
|860> C          32.8490000000    17.5400000000    24.6960000000
|861> H          32.7962806778    18.2282074658    25.5657673725
|862> H          31.8173266050    17.2640245358    24.3920400117
|863> C          33.5140000000    18.2830000000    23.5310000000
|864> H          33.6964846243    17.5623146489    22.7058847870
|865> H          34.4855511547    18.6941797605    23.8781637747
|866> C          32.6770000000    19.4320000000    22.9850000000
|867> O          31.5890000000    19.7090000000    23.5310000000
|868> O          33.1120000000    20.0560000000    21.9950000000
|869> C          35.0370000000    16.5810000000    25.4960000000
|870> O          35.9320000000    16.4540000000    24.6570000000
|871> N          35.2610000000    16.9880000000    26.7450000000
|872> H          34.5203869945    17.1118670739    27.4006205542
|873> C          36.6080000000    17.2800000000    27.2370000000
|874> H          37.0480072471    18.0213507116    26.5866555493
|875> C          36.5580000000    17.7950000000    28.6660000000
|876> H          36.0968481620    17.0333030169    29.3304378739
|877> H          35.9479718918    18.7223329067    28.7126206829
|878> H          37.5869235956    18.0054582304    29.0283226027
|879> C          37.5230000000    16.0610000000    27.1340000000
|880> O          38.6600000000    16.1760000000    26.6770000000
|881> N          37.0190000000    14.8990000000    27.5500000000
|882> H          36.1123161996    14.8319973975    27.9588537489
|883> C          37.7660000000    13.6440000000    27.4330000000
|884> H          38.7415551485    13.7946635632    27.8708728004
|885> C          37.0360000000    12.5070000000    28.1460000000
|886> H          37.5268964168    11.5482195462    27.8760060470
|887> H          35.9841007234    12.4853190421    27.7907904378
|888> C          37.0320000000    12.6380000000    29.6590000000
|889> H          36.4640088398    13.5506038985    29.9385869060
|890> H          38.0799623723    12.7375226941    30.0132580573
|891> C          36.4030000000    11.4520000000    30.3570000000
|892> O          35.9230000000    10.5210000000    29.6710000000
|893> O          36.3930000000    11.4530000000    31.6050000000
|894> C          38.0250000000    13.2730000000    25.9710000000
|895> O          39.1090000000    12.8000000000    25.6270000000
|896> N          37.0250000000    13.4950000000    25.1220000000
|897> H          36.1366777504    13.8264184862    25.4297052190
|898> C          37.1590000000    13.2690000000    23.6830000000
|899> H          37.4986472193    12.2549758203    23.5327746758
|900> C          35.8190000000    13.4910000000    22.9810000000
|901> H          35.9966653056    13.5150421500    21.8851791581
|902> H          35.4133995399    14.4736567837    23.3016870993
|903> C          34.7810000000    12.4250000000    23.2750000000
|904> H          34.6922800261    12.3085455369    24.3757668817
|905> H          35.1307904309    11.4606777776    22.8497354828
|906> S          33.1760000000    12.8440000000    22.5810000000
|907> C          32.1450000000    11.5840000000    23.3380000000
|908> H          32.1696124923    11.6547519434    24.4464716450
|909> H          32.5024099273    10.5722787829    23.0507134145
|910> H          31.0904766456    11.7030707546    23.0098873521
|911> C          38.2350000000    14.1690000000    23.0700000000
|912> O          39.0640000000    13.7030000000    22.2830000000
|913> N          38.2140000000    15.4480000000    23.4440000000
|914> H          37.5205939233    15.7957331187    24.0697528606
|915> C          39.1940000000    16.4370000000    22.9740000000
|916> H          39.2093847840    16.4056947792    21.8946759470
|917> C          38.8210000000    17.8410000000    23.4600000000
|918> H          39.7242786312    18.4831717412    23.3938255653
|919> H          38.5069809034    17.7690796219    24.5224948719
|920> C          37.7050000000    18.5090000000    22.6790000000
|921> H          36.7702293421    17.9220349044    22.8038131300
|922> H          37.9750655931    18.5294548758    21.6017123424
|923> C          37.4700000000    19.9310000000    23.1620000000
|924> H          38.4111317669    20.5116855360    23.0573320283
|925> H          37.1792028661    19.9084860202    24.2338256511
|926> C          36.3740000000    20.6110000000    22.3630000000
|927> H          35.4475407131    19.9989201616    22.3976499438
|928> H          36.7034054605    20.7458305975    21.3106303359
|929> N          36.0530000000    21.9570000000    22.9170000000
|930> H          36.8453412046    22.6054758913    22.7345871884
|931> H          35.8958720455    21.8814227245    23.9422797264
|932> H          35.1930905129    22.3234651347    22.4610848598
|933> C          40.6210000000    16.1150000000    23.4150000000
|934> O          41.5770000000    16.4190000000    22.7010000000
|935> N          40.7530000000    15.5040000000    24.5920000000
|936> H          39.9619416605    15.2420711934    25.1389647233
|937> C          42.0590000000    15.1750000000    25.1640000000
|938> H          42.7753132114    15.8996272520    24.8062370652
|939> C          41.9890000000    15.2030000000    26.6920000000
|940> H          41.2434666307    14.4629390318    27.0536776999
|941> H          41.6825936595    16.2132554428    27.0380537466
|942> H          42.9810522467    14.9456184693    27.1207670557
|943> C          42.6030000000    13.8280000000    24.6790000000
|944> O          43.7770000000    13.5130000000    24.8960000000
|945> N          41.7530000000    13.0400000000    24.0230000000
|946> H          40.8149321374    13.3166495619    23.8299444762
|947> C          42.1450000000    11.7160000000    23.5440000000
|948> H          42.7763657164    11.2629430536    24.2938451647
|949> C          40.9110000000    10.8430000000    23.2900000000
|950> H          40.2042931885    11.3837949671    22.6249440890
|951> H          40.4107687874    10.6173951614    24.2559525192
|952> O          41.2690000000     9.6200000000    22.6700000000
|953> H          41.1312932917     8.9378371955    23.3312796463
|954> C          43.0150000000    11.7930000000    22.2900000000
|955> O          42.5360000000    12.1440000000    21.2090000000
|956> N          44.2950000000    11.4580000000    22.4510000000
|957> H          44.6671613571    11.2277596484    23.3465253642
|958> C          45.2420000000    11.4030000000    21.3380000000
|959> H          45.1629737357    12.3275064624    20.7855495631
|960> C          46.6740000000    11.2120000000    21.8550000000
|961> H          47.3464892598    11.0757824777    20.9820012227
|962> H          46.7020162684    10.2932994499    22.4779994150
|963> C          47.2000000000    12.3790000000    22.6920000000
|964> H          46.5358713114    12.5148748179    23.5717552719
|965> H          47.1784608664    13.3005464227    22.0724949748
|966> C          48.6230000000    12.1750000000    23.1950000000
|967> O          49.1720000000    11.0590000000    23.0530000000
|968> O          49.1970000000    13.1410000000    23.7420000000
|969> C          44.8780000000    10.2770000000    20.3690000000
|970> O          45.0940000000    10.3920000000    19.1630000000
|971> N          44.3190000000     9.1980000000    20.9140000000
|972> H          44.1665712437     9.1289217097    21.8965454365
|973> C          43.8910000000     8.0470000000    20.1280000000
|974> H          44.7041766342     7.7616923033    19.4772054413
|975> C          43.5160000000     6.8880000000    21.0560000000
|976> H          42.4920570181     7.0595839655    21.4507243760
|977> H          44.2335196886     6.8585398113    21.9033518833
|978> C          43.5420000000     5.5440000000    20.3590000000
|979> O          44.4290000000     5.3190000000    19.5060000000
|980> O          42.6760000000     4.7030000000    20.6790000000
|981> C          42.7200000000     8.3990000000    19.2060000000
|982> O          42.6990000000     7.9920000000    18.0440000000
|983> N          41.7590000000     9.1630000000    19.7280000000
|984> H          41.7802079028     9.4594336291    20.6794838926
|985> C          40.6090000000     9.6180000000    18.9410000000
|986> H          40.1911323395     8.7596483118    18.4362824203
|987> C          39.5500000000    10.2730000000    19.8380000000
|988> H          39.9991739037    11.1954034679    20.2600818640
|989> H          39.3327922485     9.5649235073    20.6639460796
|990> C          38.2060000000    10.6660000000    19.2070000000
|991> H          38.3942328504    11.3313713193    18.3377269513
|992> C          37.4240000000     9.4430000000    18.7380000000
|993> H          37.0610146760     8.8631451036    19.6134033091
|994> H          38.0790306371     8.7874647693    18.1252500294
|995> H          36.5467601395     9.7630511948    18.1361100097
|996> C          37.3740000000    11.4780000000    20.1840000000
|997> H          37.9160174264    12.4051599394    20.4684513248
|998> H          37.1821208957    10.8833370819    21.1025926866
|999> H          36.4083863167    11.7618096327    19.7135784788
|1000> C          41.0320000000    10.5700000000    17.8210000000
|1001> O          40.5140000000    10.4910000000    16.7070000000
|1002> N          41.9730000000    11.4620000000    18.1290000000
|1003> H          42.3290796912    11.5515018919    19.0557047967
|1004> C          42.5480000000    12.3690000000    17.1350000000
|1005> H          41.7433924386    12.9430180540    16.6999394252
|1006> C          43.5740000000    13.3000000000    17.7880000000
|1007> H          44.4069627780    12.6789911877    18.1793712360
|1008> H          43.0814224434    13.8187745443    18.6370528262
|1009> C          44.1640000000    14.3600000000    16.8570000000
|1010> H          43.3352009203    14.8931159426    16.3445399238
|1011> H          44.7957915408    13.8591825401    16.0929599662
|1012> C          45.0150000000    15.3770000000    17.6180000000
|1013> H          44.4838968847    15.6677207185    18.5491913794
|1014> H          45.1511500503    16.2796532839    16.9852388657
|1015> C          46.3850000000    14.8160000000    17.9830000000
|1016> H          46.9228367964    14.5121821463    17.0596414445
|1017> H          46.2635808271    13.9427989471    18.6589748778
|1018> N          47.2320000000    15.8240000000    18.6910000000
|1019> H          46.7585230934    16.1205828657    19.5681876782
|1020> H          47.3731528014    16.6511045918    18.0765298892
|1021> H          48.1543343096    15.4018625563    18.9205627060
|1022> C          43.1840000000    11.5750000000    15.9930000000
|1023> O          42.9510000000    11.8790000000    14.8180000000
|1024> N          43.9610000000    10.5510000000    16.3550000000
|1025> H          44.1284869421    10.3335924288    17.3132208460
|1026> C          44.6190000000     9.6790000000    15.3820000000
|1027> H          45.2453949795    10.2938130357    14.7528893326
|1028> C          45.4610000000     8.6120000000    16.0890000000
|1029> H          45.6525778406     7.7853888225    15.3728015662
|1030> H          44.8775528695     8.2169913324    16.9471875686
|1031> C          46.7980000000     9.1160000000    16.6090000000
|1032> H          46.6685212779    10.1218095874    17.0626817718
|1033> H          47.5220685487     9.1914741734    15.7697901326
|1034> C          47.3360000000     8.1240000000    17.6780000000
|1035> H          47.5959393056     7.1619049142    17.1873065527
|1036> H          46.5457657367     7.9382972865    18.4363005784
|1037> C          48.5690000000     8.6850000000    18.3660000000
|1038> H          48.2789841691     9.5330049517    19.0224659323
|1039> H          49.3016062180     9.0256333751    17.6034869616
|1040> N          49.2400000000     7.6630000000    19.2150000000
|1041> H          49.6811243557     6.9428252294    18.6080752908
|1042> H          48.5372270338     7.2112024744    19.8343454528
|1043> H          49.9705004933     8.1208983691    19.7966336896
|1044> C          43.6150000000     9.0200000000    14.4400000000
|1045> O          43.8440000000     8.9450000000    13.2320000000
|1046> N          42.5000000000     8.5450000000    14.9960000000
|1047> H          42.3220708149     8.6054548459    15.9750895561
|1048> C          41.4690000000     7.9030000000    14.1850000000
|1049> H          41.9613822666     7.2270651421    13.5018406963
|1050> C          40.4630000000     7.1370000000    15.0460000000
|1051> H          39.8934041477     7.8641612948    15.6627263110
|1052> H          41.0181972090     6.4464076704    15.7156212509
|1053> N          39.8760000000     5.3040000000    13.4140000000
|1054> H          40.8221577624     5.0085816629    13.2826691293
|1055> C          39.4860000000     6.3320000000    14.2450000000
|1056> C          38.8110000000     4.7840000000    12.8310000000
|1057> H          38.8358612297     3.9551757230    12.1246122753
|1058> N          37.7450000000     5.4380000000    13.2530000000
|1059> C          38.1400000000     6.4150000000    14.1350000000
|1060> H          37.4225338958     7.0781296286    14.6015339389
|1061> C          40.7580000000     8.9010000000    13.2730000000
|1062> O          40.4570000000     8.5820000000    12.1220000000
|1063> N          40.5050000000    10.1040000000    13.7860000000
|1064> H          40.6873809651    10.3191009939    14.7421161270
|1065> C          39.9430000000    11.1890000000    12.9810000000
|1066> H          39.9169783665    12.0799187923    13.5908649195
|1067> H          38.9417105294    10.9069599828    12.6907906537
|1068> C          40.7670000000    11.4600000000    11.7350000000
|1069> O          40.2180000000    11.6390000000    10.6490000000
|1070> N          42.0900000000    11.4760000000    11.9000000000
|1071> H          42.5034022948    11.3705846847    12.8007175845
|1072> C          43.0320000000    11.6470000000    10.7900000000
|1073> H          42.7579358509    12.5464463275    10.2589881906
|1074> C          44.4970000000    11.7520000000    11.3000000000
|1075> H          44.7259664021    10.8700468360    11.9353097954
|1076> C          45.4840000000    11.8030000000    10.1410000000
|1077> H          45.1690864364    12.5733055804     9.4049430999
|1078> H          45.5183788817    10.8171572150     9.6299362111
|1079> H          46.4959728470    12.0647728894    10.5173509161
|1080> C          44.6670000000    12.9760000000    12.1880000000
|1081> H          43.8713194865    12.9988996575    12.9630413706
|1082> H          44.5928473782    13.9003230087    11.5761319873
|1083> H          45.6549798051    12.9411576863    12.6948885662
|1084> C          42.9000000000    10.4960000000     9.7870000000
|1085> O          42.8410000000    10.7260000000     8.5800000000
|1086> N          42.8360000000     9.2690000000    10.3010000000
[...]
      f0      :     0.005540  f :     0.036555
      f+1     :     0.004996
      f-1     :     0.004064
      f+2     :     0.004787
      f-2     :     0.005474
      f+3     :     0.006766
      f-3     :     0.004927
 67 H s       :     0.798418  s :     0.798418
      pz      :     0.022416  p :     0.058719
      px      :     0.012899
      py      :     0.023405
 68 C s       :     2.868255  s :     2.868255
      pz      :     0.995277  p :     3.065833
      px      :     1.062022
      py      :     1.008534
      dz2     :     0.027505  d :     0.233992
      dxz     :     0.076711
      dyz     :     0.030453
      dx2y2   :     0.046068
      dxy     :     0.053256
      f0      :     0.002542  f :     0.027213
      f+1     :     0.003846
      f-1     :     0.003061
      f+2     :     0.003149
      f-2     :     0.004023
      f+3     :     0.005967
      f-3     :     0.004624
 69 H s       :     0.803947  s :     0.803947
      pz      :     0.024803  p :     0.065725
      px      :     0.013697
      py      :     0.027225
 70 H s       :     0.812815  s :     0.812815
      pz      :     0.029253  p :     0.060666
      px      :     0.017554
      py      :     0.013858
 71 C s       :     2.845595  s :     2.845595
      pz      :     1.028189  p :     3.156336
      px      :     1.062315
      py      :     1.065831
      dz2     :     0.052327  d :     0.226340
      dxz     :     0.064322
      dyz     :     0.041929
      dx2y2   :     0.013938
      dxy     :     0.053824
      f0      :     0.004789  f :     0.021973
      f+1     :     0.003112
      f-1     :     0.003401
      f+2     :     0.004027
      f-2     :     0.002562
      f+3     :     0.002747
      f-3     :     0.001335
 72 H s       :     0.806763  s :     0.806763
      pz      :     0.012817  p :     0.059214
      px      :     0.019450
      py      :     0.026946
 73 H s       :     0.789661  s :     0.789661
      pz      :     0.014926  p :     0.060487
      px      :     0.020306
      py      :     0.025254
 74 H s       :     0.805814  s :     0.805814
      pz      :     0.021607  p :     0.059424
      px      :     0.024186
      py      :     0.013631
 75 C s       :     2.782519  s :     2.782519
      pz      :     1.000959  p :     3.011634
      px      :     0.995842
      py      :     1.014832
      dz2     :     0.053535  d :     0.378973
      dxz     :     0.100326
      dyz     :     0.081218
      dx2y2   :     0.063868
      dxy     :     0.080026
      f0      :     0.005817  f :     0.036248
      f+1     :     0.004588
      f-1     :     0.005111
      f+2     :     0.005559
      f-2     :     0.005238
      f+3     :     0.005183
      f-3     :     0.004753
 76 H s       :     0.789354  s :     0.789354
      pz      :     0.021430  p :     0.058084
      px      :     0.022983
      py      :     0.013672
 77 H s       :     0.799549  s :     0.799549
      pz      :     0.017130  p :     0.057213
      px      :     0.015459
      py      :     0.024624
 78 C s       :     2.795256  s :     2.795256
      pz      :     0.990535  p :     3.004562
      px      :     0.995049
      py      :     1.018977
      dz2     :     0.052365  d :     0.378290
      dxz     :     0.095891
      dyz     :     0.089258
      dx2y2   :     0.060976
      dxy     :     0.079800
      f0      :     0.006284  f :     0.038862
      f+1     :     0.004924
      f-1     :     0.005305
      f+2     :     0.006295
      f-2     :     0.005742
      f+3     :     0.005480
      f-3     :     0.004832
 79 H s       :     0.795416  s :     0.795416
      pz      :     0.019609  p :     0.057154
      px      :     0.023644
      py      :     0.013901
 80 H s       :     0.797599  s :     0.797599
      pz      :     0.016984  p :     0.056828
      px      :     0.015354
      py      :     0.024490
 81 C s       :     2.770271  s :     2.770271
      pz      :     0.913409  p :     2.752379
      px      :     0.986026
      py      :     0.852945
      dz2     :     0.203114  d :     0.986456
      dxz     :     0.265796
      dyz     :     0.131931
      dx2y2   :     0.180285
      dxy     :     0.205331
      f0      :     0.023721  f :     0.164490
      f+1     :     0.030186
      f-1     :     0.016629
      f+2     :     0.028148
      f-2     :     0.019381
      f+3     :     0.018382
      f-3     :     0.028042
 82 O s       :     3.436605  s :     3.436605
      pz      :     1.568299  p :     4.542288
      px      :     1.457547
      py      :     1.516441
      dz2     :     0.008293  d :     0.062371
      dxz     :     0.017811
      dyz     :     0.002012
      dx2y2   :     0.020748
      dxy     :     0.013507
      f0      :     0.000516  f :     0.005351
      f+1     :     0.001118
      f-1     :     0.000032
      f+2     :     0.001077
      f-2     :     0.000349
      f+3     :     0.001214
      f-3     :     0.001044
 83 O s       :     3.441419  s :     3.441419
      pz      :     1.447599  p :     4.454085
      px      :     1.562573
      py      :     1.443914
      dz2     :     0.015824  d :     0.062070
      dxz     :     0.013428
      dyz     :     0.019505
      dx2y2   :     0.006459
      dxy     :     0.006854
      f0      :     0.000755  f :     0.005298
      f+1     :     0.000786
      f-1     :     0.001310
      f+2     :     0.000953
      f-2     :     0.001058
      f+3     :     0.000204
      f-3     :     0.000231
 84 H s       :     0.945414  s :     0.945414
      pz      :     0.005385  p :     0.010857
      px      :     0.001171
      py      :     0.004301
 85 H s       :     0.940550  s :     0.940550
      pz      :     0.007322  p :     0.011366
      px      :     0.000821
      py      :     0.003223
 86 H s       :     0.837850  s :     0.837850
      pz      :     0.017203  p :     0.062222
      px      :     0.015135
      py      :     0.029884


                      *****************************
                      * MAYER POPULATION ANALYSIS *
                      *****************************

  NA   - Mulliken gross atomic population
  ZA   - Total nuclear charge
  QA   - Mulliken gross atomic charge
  VA   - Mayer's total valence
  BVA  - Mayer's bonded valence
  FA   - Mayer's free valence

  ATOM       NA         ZA         QA         VA         BVA        FA
  0 C      6.2754     6.0000    -0.2754     3.9325     3.9325    -0.0000
  1 H      0.8361     1.0000     0.1639     0.9536     0.9536    -0.0000
  2 H      0.8299     1.0000     0.1701     0.9818     0.9818    -0.0000
  3 N      7.1117     7.0000    -0.1117     3.5048     3.5048    -0.0000
  4 H      0.7060     1.0000     0.2940     0.9237     0.9237    -0.0000
  5 C      5.9011     6.0000     0.0989     3.7889     3.7889    -0.0000
  6 C      5.9761     6.0000     0.0239     4.0090     4.0090     0.0000
  7 H      0.8150     1.0000     0.1850     0.9915     0.9915    -0.0000
  8 N      6.9542     7.0000     0.0458     3.3570     3.3570    -0.0000
  9 C      6.1824     6.0000    -0.1824     4.0246     4.0246     0.0000
 10 H      0.8750     1.0000     0.1250     0.9894     0.9894     0.0000
 11 Fe    26.2366    26.0000    -0.2366     5.1591     5.1591     0.0000
 12 N      7.0155     7.0000    -0.0155     3.2886     3.2886     0.0000
 13 N      6.9784     7.0000     0.0216     3.2690     3.2690     0.0000
 14 N      7.0265     7.0000    -0.0265     3.2575     3.2575    -0.0000
 15 N      6.9491     7.0000     0.0509     3.3322     3.3322     0.0000
 16 C      5.7745     6.0000     0.2255     3.7425     3.7425     0.0000
 17 C      5.9664     6.0000     0.0336     3.6616     3.6616    -0.0000
 18 C      6.0451     6.0000    -0.0451     3.7285     3.7285    -0.0000
 19 C      5.6247     6.0000     0.3753     3.6109     3.6109    -0.0000
 20 C      5.6690     6.0000     0.3310     3.7696     3.7696    -0.0000
 21 C      6.0848     6.0000    -0.0848     3.6890     3.6890     0.0000
 22 C      5.9118     6.0000     0.0882     3.5679     3.5679     0.0000
 23 C      5.7255     6.0000     0.2745     3.9288     3.9288     0.0000
 24 C      5.5980     6.0000     0.4020     3.5298     3.5298    -0.0000
 25 C      6.0845     6.0000    -0.0845     3.6654     3.6654     0.0000
 26 C      5.8574     6.0000     0.1426     3.6211     3.6211     0.0000
 27 C      5.7992     6.0000     0.2008     3.7696     3.7696     0.0000
 28 C      5.7124     6.0000     0.2876     3.8238     3.8238    -0.0000
 29 C      6.0364     6.0000    -0.0364     3.5792     3.5792    -0.0000
 30 C      5.8292     6.0000     0.1708     3.5599     3.5599     0.0000
 31 C      5.5667     6.0000     0.4333     3.7428     3.7428     0.0000
 32 C      6.5886     6.0000    -0.5886     3.8662     3.8662     0.0000
 33 H      0.8979     1.0000     0.1021     0.9940     0.9940     0.0000
 34 C      6.6043     6.0000    -0.6043     3.9254     3.9254    -0.0000
 35 H      0.9024     1.0000     0.0976     0.9839     0.9839    -0.0000
 36 C      6.5412     6.0000    -0.5412     3.8860     3.8860     0.0000
 37 H      0.9095     1.0000     0.0905     0.9963     0.9963     0.0000
 38 C      6.4516     6.0000    -0.4516     3.8864     3.8864     0.0000
 39 H      0.9191     1.0000     0.0809     0.9839     0.9839    -0.0000
 40 C      6.3920     6.0000    -0.3920     3.8742     3.8742     0.0000
 41 H      0.8579     1.0000     0.1421     0.9660     0.9660    -0.0000
 42 H      0.8815     1.0000     0.1185     0.9772     0.9772     0.0000
 43 H      0.8666     1.0000     0.1334     0.9691     0.9691    -0.0000
 44 C      6.2199     6.0000    -0.2199     4.0611     4.0611    -0.0000
 45 H      0.9235     1.0000     0.0765     0.9862     0.9862    -0.0000
 46 H      0.9197     1.0000     0.0803     0.9700     0.9700    -0.0000
 47 C      6.1120     6.0000    -0.1120     3.7687     3.7687     0.0000
 48 H      0.9201     1.0000     0.0799     0.9819     0.9819    -0.0000
 49 H      0.9192     1.0000     0.0808     0.9976     0.9976    -0.0000
 50 C      5.7400     6.0000     0.2600     4.5090     4.5090    -0.0000
 51 O      8.4675     8.0000    -0.4675     2.0465     2.0465    -0.0000
 52 O      8.2819     8.0000    -0.2819     2.2687     2.2687    -0.0000
 53 C      6.3752     6.0000    -0.3752     3.8486     3.8486    -0.0000
 54 H      0.8796     1.0000     0.1204     0.9698     0.9698    -0.0000
 55 H      0.8313     1.0000     0.1687     0.9632     0.9632     0.0000
 56 H      0.8598     1.0000     0.1402     0.9739     0.9739    -0.0000
 57 C      6.3137     6.0000    -0.3137     3.9865     3.9865     0.0000
 58 H      0.8820     1.0000     0.1180     0.9653     0.9653     0.0000
 59 C      6.1856     6.0000    -0.1856     3.9429     3.9429    -0.0000
 60 H      0.8880     1.0000     0.1120     0.9761     0.9761     0.0000
 61 H      0.8694     1.0000     0.1306     0.9697     0.9697    -0.0000
 62 C      6.3559     6.0000    -0.3559     3.8609     3.8609     0.0000
 63 H      0.8670     1.0000     0.1330     0.9645     0.9645    -0.0000
 64 H      0.8712     1.0000     0.1288     0.9846     0.9846     0.0000
 65 H      0.8584     1.0000     0.1416     0.9679     0.9679    -0.0000
 66 C      6.2110     6.0000    -0.2110     3.9081     3.9081    -0.0000
 67 H      0.9142     1.0000     0.0858     0.9812     0.9812    -0.0000
 68 C      6.2655     6.0000    -0.2655     3.9110     3.9110    -0.0000
 69 H      0.8579     1.0000     0.1421     0.9677     0.9677     0.0000
 70 H      0.8779     1.0000     0.1221     0.9720     0.9720    -0.0000
 71 C      6.3614     6.0000    -0.3614     3.8371     3.8371     0.0000
 72 H      0.8943     1.0000     0.1057     0.9668     0.9668     0.0000
 73 H      0.8249     1.0000     0.1751     0.9677     0.9677     0.0000
 74 H      0.8736     1.0000     0.1264     0.9926     0.9926     0.0000
 75 C      6.3313     6.0000    -0.3313     4.0037     4.0037     0.0000
 76 H      0.8720     1.0000     0.1280     0.9877     0.9877     0.0000
 77 H      0.9373     1.0000     0.0627     0.9837     0.9837     0.0000
 78 C      6.0227     6.0000    -0.0227     3.7382     3.7382    -0.0000
 79 H      0.9240     1.0000     0.0760     0.9927     0.9927    -0.0000
 80 H      0.9358     1.0000     0.0642     1.0139     1.0139     0.0000
 81 C      5.8516     6.0000     0.1484     4.6505     4.6505     0.0000
 82 O      8.4679     8.0000    -0.4679     2.0176     2.0176     0.0000
 83 O      8.3569     8.0000    -0.3569     2.1556     2.1556    -0.0000
 84 H      1.0115     1.0000    -0.0115     1.0088     1.0088    -0.0000
 85 H      0.9140     1.0000     0.0860     0.9851     0.9851    -0.0000
 86 H      0.9862     1.0000     0.0138     0.9607     0.9607    -0.0000

  Mayer bond orders larger than 0.100000
B(  0-C ,  1-H ) :   0.9674 B(  0-C ,  2-H ) :   0.9801 B(  0-C ,  5-C ) :   1.0199 
B(  0-C , 86-H ) :   0.9110 B(  3-N ,  4-H ) :   0.8777 B(  3-N ,  5-C ) :   1.1645 
B(  3-N ,  6-C ) :   1.3561 B(  5-C ,  9-C ) :   1.5437 B(  6-C ,  7-H ) :   0.9235 
B(  6-C ,  8-N ) :   1.4374 B(  8-N ,  9-C ) :   1.2290 B(  8-N , 11-Fe) :   0.7329 
B(  9-C , 10-H ) :   0.9840 B( 11-Fe, 12-N ) :   0.7386 B( 11-Fe, 13-N ) :   0.7374 
B( 11-Fe, 14-N ) :   0.6960 B( 11-Fe, 15-N ) :   0.8102 B( 11-Fe, 52-O ) :   0.1482 
B( 12-N , 16-C ) :   1.2074 B( 12-N , 19-C ) :   1.2044 B( 13-N , 20-C ) :   1.2218 
B( 13-N , 23-C ) :   1.1911 B( 14-N , 24-C ) :   1.2392 B( 14-N , 27-C ) :   1.2229 
B( 15-N , 28-C ) :   1.1775 B( 15-N , 31-C ) :   1.2079 B( 16-C , 17-C ) :   1.0804 
B( 16-C , 32-C ) :   1.2796 B( 17-C , 18-C ) :   1.5284 B( 17-C , 44-C ) :   0.9936 
B( 18-C , 19-C ) :   1.0816 B( 18-C , 40-C ) :   0.9697 B( 19-C , 34-C ) :   1.1905 
B( 20-C , 21-C ) :   1.0749 B( 20-C , 34-C ) :   1.2781 B( 21-C , 22-C ) :   1.4537 
B( 21-C , 53-C ) :   0.9805 B( 22-C , 23-C ) :   1.0940 B( 22-C , 57-C ) :   0.9524 
B( 23-C , 36-C ) :   1.3524 B( 24-C , 25-C ) :   1.1143 B( 24-C , 36-C ) :   1.1058 
B( 25-C , 26-C ) :   1.4847 B( 25-C , 62-C ) :   0.9244 B( 26-C , 27-C ) :   1.0452 
B( 26-C , 66-C ) :   1.0260 B( 27-C , 38-C ) :   1.3206 B( 28-C , 29-C ) :   1.2445 
B( 28-C , 38-C ) :   1.1965 B( 29-C , 30-C ) :   1.1767 B( 29-C , 71-C ) :   0.8822 
B( 30-C , 31-C ) :   1.1662 B( 30-C , 75-C ) :   0.8786 B( 31-C , 32-C ) :   1.1473 
B( 32-C , 33-H ) :   1.0079 B( 34-C , 35-H ) :   1.0188 B( 36-C , 37-H ) :   1.0195 
B( 38-C , 39-H ) :   1.0088 B( 40-C , 41-H ) :   0.9666 B( 40-C , 42-H ) :   0.9787 
B( 40-C , 43-H ) :   0.9570 B( 44-C , 45-H ) :   0.9266 B( 44-C , 46-H ) :   0.9412 
B( 44-C , 47-C ) :   1.0553 B( 47-C , 48-H ) :   0.9071 B( 47-C , 49-H ) :   0.9224 
B( 47-C , 50-C ) :   0.9579 B( 50-C , 51-O ) :   1.6841 B( 50-C , 52-O ) :   1.7514 
B( 53-C , 54-H ) :   0.9660 B( 53-C , 55-H ) :   0.9497 B( 53-C , 56-H ) :   0.9740 
B( 57-C , 58-H ) :   0.9498 B( 57-C , 59-C ) :   2.0158 B( 59-C , 60-H ) :   0.9471 
B( 59-C , 61-H ) :   0.9396 B( 62-C , 63-H ) :   0.9714 B( 62-C , 64-H ) :   0.9724 
B( 62-C , 65-H ) :   0.9683 B( 66-C , 67-H ) :   0.9710 B( 66-C , 68-C ) :   1.8864 
B( 68-C , 69-H ) :   0.9367 B( 68-C , 70-H ) :   0.9464 B( 71-C , 72-H ) :   0.9587 
B( 71-C , 73-H ) :   0.9808 B( 71-C , 74-H ) :   0.9871 B( 75-C , 76-H ) :   0.9526 
B( 75-C , 77-H ) :   0.9509 B( 75-C , 78-C ) :   1.0735 B( 78-C , 79-H ) :   0.9204 
B( 78-C , 80-H ) :   0.9170 B( 78-C , 81-C ) :   0.8700 B( 81-C , 82-O ) :   1.8366 
B( 81-C , 83-O ) :   1.8323 B( 84-H , 85-H ) :   0.9182 

-------
TIMINGS
-------

Total SCF time: 0 days 1 hours 19 min 42 sec 

Total time                  ....    4782.793 sec
Sum of individual times     ....    3275.724 sec  ( 68.5%)

Fock matrix formation       ....    2981.960 sec  ( 62.3%)
  Split-RI-J                ....    2012.476 sec  ( 67.5% of F)
  XC integration            ....     783.754 sec  ( 26.3% of F)
    Basis function eval.    ....      52.521 sec  (  6.7% of XC)
    Density eval.           ....     221.289 sec  ( 28.2% of XC)
    XC-Functional eval.     ....      13.461 sec  (  1.7% of XC)
    XC-Potential eval.      ....     185.041 sec  ( 23.6% of XC)
Diagonalization             ....      16.549 sec  (  0.3%)
Density matrix formation    ....      18.185 sec  (  0.4%)
Population analysis         ....      12.893 sec  (  0.3%)
Initial guess               ....       6.609 sec  (  0.1%)
Orbital Transformation      ....     144.490 sec  (  3.0%)
Orbital Orthonormalization  ....       0.000 sec  (  0.0%)
DIIS solution               ....      76.750 sec  (  1.6%)
Grid generation             ....      18.180 sec  (  0.4%)

Maximum memory used throughout the entire SCF-calculation: 435.4 MB


-------------------------------------------------------------------------------
                          DFT DISPERSION CORRECTION                            
                                                                               
                                 DFTD4 V2.5                                    
-------------------------------------------------------------------------------
The revPBE functional is recognized
Active option DFTDOPT                   ...         5   

Starting D4
-------------------------   ----------------
Dispersion correction           -0.409339318
-------------------------   ----------------


-------------------------   --------------------
FINAL SINGLE POINT ENERGY     -3363.379498225002
-------------------------   --------------------



--------------------------------------   --------------------
FINAL SINGLE POINT ENERGY (QM/MM)    -3363.777285281367
--------------------------------------   --------------------


                            ***************************************
                            *     ORCA property calculations      *
                            ***************************************

                                    ---------------------
                                    Active property flags
                                    ---------------------
   (+) Dipole Moment


------------------------------------------------------------------------------
                       ORCA ELECTRIC PROPERTIES CALCULATION
------------------------------------------------------------------------------

Dipole Moment Calculation                       ... on
Quadrupole Moment Calculation                   ... off
Polarizability Calculation                      ... off
GBWName                                         ... input/input_orca_scan_191.gbw
Electron density                                ... input/input_orca_scan_191.scfp
The origin for moment calculation is the CENTER OF MASS  = (67.068490,  5.856759 19.538245)

-------------
DIPOLE MOMENT
-------------
                                X             Y             Z
Electronic contribution:      4.30088      -5.20041       2.29235
Nuclear contribution   :    -12.97725      10.88251      -9.63008
                        -----------------------------------------
Total Dipole Moment    :     -8.67637       5.68210      -7.33773
                        -----------------------------------------
Magnitude (a.u.)       :     12.70464
Magnitude (Debye)      :     32.29263



--------------------
Rotational spectrum 
--------------------
 
Rotational constants in cm-1:     0.002365     0.001719     0.001250 
Rotational constants in MHz :    70.899800    51.545890    37.462704 

 Dipole components along the rotational axes: 
x,y,z [a.u.] :    12.528986    -0.904134     1.901307 
x,y,z [Debye]:    31.846152    -2.298125     4.832739 

 

Timings for individual modules:

Sum of individual times         ...     4814.278 sec (=  80.238 min)
GTO integral calculation        ...       27.909 sec (=   0.465 min)   0.6 %
SCF iterations                  ...     4785.304 sec (=  79.755 min)  99.4 %
MM module                       ...        1.065 sec (=   0.018 min)   0.0 %
                             ****ORCA TERMINATED NORMALLY****
TOTAL RUN TIME: 0 days 1 hours 20 minutes 53 seconds 581 msec
